LAMMPS UA chain data file
 
         196  atoms
         194  bonds
         192  angles
         190  dihedrals
           0  impropers
 
           3  atom types
           1  bond types
           1  angle types
           1  dihedral types
           0  improper types
 
    -400.000000     400.000000 xlo xhi
    -400.000000     400.000000 ylo yhi
    -0.050000      124.000000 zlo zhi
 
Masses
 
  1   14.00
  2   14.00
  3   14.00
 
Atoms

 1 1 3 -2.95332 -1.1071 -0.0123858 0 0 0
 2 1 3 -2.00315 0.397106 0.591646 0 0 0
 3 1 3 -0.775079 1.15205 1.85303 0 0 0
 4 1 1 0.571499 0.517514 3.11447 0 0 0
 5 1 1 0.741565 -1.02214 4.34371 0 0 0
 6 1 1 -0.367755 -1.90206 5.54304 0 0 0
 7 1 1 -1.70647 -1.39447 6.86225 0 0 0
 8 1 1 -1.87399 -0.00143605 8.23103 0 0 0
 9 1 1 -0.704318 0.750154 9.51808 0 0 0
 10 1 1 0.560166 0.0591575 10.8318 0 0 0
 11 1 1 0.544535 -1.31538 12.1681 0 0 0
 12 1 1 -0.793601 -2.04677 13.45 0 0 0
 13 1 1 -2.0726 -1.27485 14.6782 0 0 0
 14 1 1 -2.02301 0.209788 15.9944 0 0 0
 15 1 1 -0.691354 0.889601 17.2493 0 0 0
 16 1 1 0.478693 0.0799194 18.5835 0 0 0
 17 1 1 0.273141 -1.20028 19.9977 0 0 0
 18 1 1 -1.06231 -1.68696 21.3246 0 0 0
 19 1 1 -2.15596 -0.766005 22.6247 0 0 0
 20 1 1 -1.81317 0.729292 23.8316 0 0 0
 21 1 1 -0.416036 1.23305 25.0944 0 0 0
 22 1 1 0.716339 0.240057 26.357 0 0 0
 23 1 1 0.434387 -1.17797 27.6223 0 0 0
 24 1 1 -0.87712 -1.57111 28.9592 0 0 0
 25 1 1 -1.86974 -0.574804 30.2707 0 0 0
 26 1 1 -1.46009 0.842485 31.4718 0 0 0
 27 1 1 -0.0243836 1.1898 32.7336 0 0 0
 28 1 1 0.921873 0.147599 34.0634 0 0 0
 29 1 1 0.41253 -1.18008 35.3887 0 0 0
 30 1 1 -1.08121 -1.39024 36.6314 0 0 0
 31 1 1 -1.99202 -0.271688 37.8802 0 0 0
 32 1 1 -1.52604 1.14287 39.1337 0 0 0
 33 1 1 -0.111958 1.42741 40.4246 0 0 0
 34 1 1 0.794287 0.308518 41.7358 0 0 0
 35 1 1 0.235771 -0.956819 43.0939 0 0 0
 36 1 1 -1.11249 -1.00471 44.4363 0 0 0
 37 1 1 -1.76891 0.286159 45.7902 0 0 0
 38 1 1 -0.89753 1.47353 47.0546 0 0 0
 39 1 1 0.555429 1.26792 48.3256 0 0 0
 40 1 1 1.11896 -0.0750039 49.6316 0 0 0
 41 1 1 0.16142 -1.21326 50.9028 0 0 0
 42 1 1 -1.25127 -0.834605 52.2063 0 0 0
 43 1 1 -1.74258 0.571221 53.4247 0 0 0
 44 1 1 -0.74235 1.70545 54.6407 0 0 0
 45 1 1 0.714276 1.44111 55.9159 0 0 0
 46 1 1 1.10596 0.10828 57.2658 0 0 0
 47 1 1 0.100033 -0.952588 58.6214 0 0 0
 48 1 1 -1.27917 -0.483276 59.954 0 0 0
 49 1 1 -1.51632 0.932194 61.2127 0 0 0
 50 1 1 -0.39408 1.89425 62.4459 0 0 0
 51 1 1 1.07092 1.4742 63.686 0 0 0
 52 1 1 1.41913 0.0030494 64.9198 0 0 0
 53 1 1 0.399755 -1.00083 66.2007 0 0 0
 54 1 1 -0.986489 -0.496181 67.5726 0 0 0
 55 1 1 -1.16213 0.938602 68.8412 0 0 0
 56 1 1 -0.0653703 1.74223 70.1544 0 0 0
 57 1 1 1.25002 1.19116 71.4538 0 0 0
 58 1 1 1.30685 -0.223773 72.7689 0 0 0
 59 1 1 0.0673219 -0.995137 74.1063 0 0 0
 60 1 1 -1.25576 -0.308851 75.3978 0 0 0
 61 1 1 -1.19534 1.18521 76.6689 0 0 0
 62 1 1 0.116112 1.78584 77.9918 0 0 0
 63 1 1 1.36218 0.900907 79.2598 0 0 0
 64 1 1 1.17759 -0.498907 80.5714 0 0 0
 65 1 1 -0.148742 -1.00695 81.8576 0 0 0
 66 1 1 -1.23458 -0.106035 83.1977 0 0 0
 67 1 1 -0.906877 1.31902 84.5056 0 0 0
 68 1 1 0.441752 1.67378 85.7981 0 0 0
 69 1 1 1.39553 0.663036 87.1448 0 0 0
 70 1 1 1.0141 -0.694714 88.4774 0 0 0
 71 1 1 -0.329958 -0.852474 89.8008 0 0 0
 72 1 1 -1.15466 0.292957 91.1272 0 0 0
 73 1 1 -0.502363 1.64699 92.3784 0 0 0
 74 1 1 1.07093 1.81772 93.5888 0 0 0
 75 1 1 1.919 0.624038 94.7891 0 0 0
 76 1 1 1.29877 -0.71275 96.1101 0 0 0
 77 1 1 -0.0317543 -0.756419 97.4718 0 0 0
 78 1 1 -0.826851 0.429466 98.6928 0 0 0
 79 1 1 -0.131635 1.71756 99.9519 0 0 0
 80 1 1 1.33697 1.70476 101.298 0 0 0
 81 1 1 2.007 0.479701 102.606 0 0 0
 82 1 1 1.12913 -0.631089 103.921 0 0 0
 83 1 1 -0.271743 -0.452888 105.193 0 0 0
 84 1 1 -0.780945 0.874813 106.511 0 0 0
 85 1 1 0.14042 1.95696 107.8 0 0 0
 86 1 1 1.53773 1.66025 109.103 0 0 0
 87 1 1 1.9928 0.282559 110.357 0 0 0
 88 1 1 1.07242 -0.842714 111.619 0 0 0
 89 1 1 -0.29298 -0.515095 112.909 0 0 0
 90 1 1 -0.758476 0.89217 114.119 0 0 0
 91 1 1 0.175474 2.0232 115.389 0 0 0
 92 1 1 1.66531 1.81173 116.602 0 0 0
 93 1 1 2.22355 0.459253 117.875 0 0 0
 94 1 1 1.32613 -0.677006 119.127 0 0 0
 95 1 1 -0.186284 -0.648348 120.311 0 0 0
 96 1 2 -1.4379 0.4302 121.245 0 0 0
 97 1 2 -1.3844 -0.678 122.297 0 0 0
 98 1 2 -1.7147 -0.2091 123.87 0 0 0
 99 2 3 1.63192 0.624897 -0.0123858 0 0 0
 100 2 3 0.719775 -0.89088 0.5323 0 0 0
 101 2 3 -0.498846 -1.67702 1.79105 0 0 0
 102 2 1 -1.78358 -1.14481 3.13842 0 0 0
 103 2 1 -1.88361 0.200273 4.49404 0 0 0
 104 2 1 -0.681179 0.977235 5.80316 0 0 0
 105 2 1 0.580392 0.197553 7.04335 0 0 0
 106 2 1 0.672068 -1.31767 8.27595 0 0 0
 107 2 1 -0.573045 -2.08603 9.53137 0 0 0
 108 2 1 -1.88066 -1.38953 10.8126 0 0 0
 109 2 1 -1.92606 0.0732768 12.0756 0 0 0
 110 2 1 -0.731223 0.780732 13.4188 0 0 0
 111 2 1 0.473945 0.0200091 14.7404 0 0 0
 112 2 1 0.356879 -1.36723 16.0736 0 0 0
 113 2 1 -0.993194 -1.91117 17.3941 0 0 0
 114 2 1 -2.14259 -0.963374 18.667 0 0 0
 115 2 1 -1.93009 0.539944 19.9164 0 0 0
 116 2 1 -0.611303 1.08948 21.181 0 0 0
 117 2 1 0.557545 0.24265 22.4639 0 0 0
 118 2 1 0.362574 -1.15562 23.7954 0 0 0
 119 2 1 -1.02385 -1.55879 25.1572 0 0 0
 120 2 1 -1.97892 -0.584001 26.5053 0 0 0
 121 2 1 -1.60118 0.846865 27.7477 0 0 0
 122 2 1 -0.169474 1.21957 28.9584 0 0 0
 123 2 1 0.881047 0.179387 30.1988 0 0 0
 124 2 1 0.461569 -1.23419 31.4913 0 0 0
 125 2 1 -0.930908 -1.52347 32.8259 0 0 0
 126 2 1 -1.88751 -0.358908 34.0803 0 0 0
 127 2 1 -1.3714 1.05103 35.3178 0 0 0
 128 2 1 -0.0544247 1.28668 36.628 0 0 0
 129 2 1 0.763533 0.185437 37.9982 0 0 0
 130 2 1 0.211243 -1.13127 39.2905 0 0 0
 131 2 1 -1.22761 -1.15058 40.6034 0 0 0
 132 2 1 -2.0458 0.0831673 41.8925 0 0 0
 133 2 1 -1.28228 1.42564 43.0818 0 0 0
 134 2 1 0.215103 1.48766 44.3085 0 0 0
 135 2 1 1.05998 0.236281 45.5914 0 0 0
 136 2 1 0.450034 -1.03372 46.8579 0 0 0
 137 2 1 -0.937444 -1.07064 48.1264 0 0 0
 138 2 1 -1.73002 0.0980971 49.3913 0 0 0
 139 2 1 -0.979651 1.38145 50.7001 0 0 0
 140 2 1 0.501417 1.30414 52.0163 0 0 0
 141 2 1 1.05201 0.0836224 53.3598 0 0 0
 142 2 1 0.190057 -1.01885 54.711 0 0 0
 143 2 1 -1.18687 -0.741759 56.0082 0 0 0
 144 2 1 -1.66471 0.673868 57.2266 0 0 0
 145 2 1 -0.720018 1.77595 58.492 0 0 0
 146 2 1 0.742137 1.48423 59.778 0 0 0
 147 2 1 1.22036 0.0837624 61.0994 0 0 0
 148 2 1 0.198894 -0.896792 62.4288 0 0 0
 149 2 1 -1.07218 -0.377543 63.7811 0 0 0
 150 2 1 -1.22514 0.971289 65.1559 0 0 0
 151 2 1 -0.0226002 1.85694 66.3777 0 0 0
 152 2 1 1.2452 1.21169 67.6825 0 0 0
 153 2 1 1.37005 -0.291098 68.9463 0 0 0
 154 2 1 0.129186 -1.05852 70.2197 0 0 0
 155 2 1 -1.12177 -0.362754 71.5114 0 0 0
 156 2 1 -1.20077 1.11481 72.8051 0 0 0
 157 2 1 0.00955776 1.84075 74.1012 0 0 0
 158 2 1 1.21881 1.09102 75.4009 0 0 0
 159 2 1 1.15936 -0.427806 76.691 0 0 0
 160 2 1 -0.141717 -1.03132 78.0124 0 0 0
 161 2 1 -1.25582 -0.147545 79.3146 0 0 0
 162 2 1 -1.0183 1.2729 80.6566 0 0 0
 163 2 1 0.419631 1.70049 82.0374 0 0 0
 164 2 1 1.50126 0.63239 83.3218 0 0 0
 165 2 1 1.0514 -0.803452 84.6252 0 0 0
 166 2 1 -0.351083 -1.04094 85.8778 0 0 0
 167 2 1 -1.32338 0.0105955 87.1599 0 0 0
 168 2 1 -0.886179 1.44327 88.3804 0 0 0
 169 2 1 0.554465 1.82684 89.6289 0 0 0
 170 2 1 1.63225 0.75531 90.8378 0 0 0
 171 2 1 1.21526 -0.590698 92.1552 0 0 0
 172 2 1 -0.112609 -0.810669 93.5362 0 0 0
 173 2 1 -0.891702 0.361614 94.9169 0 0 0
 174 2 1 -0.217136 1.69455 96.2156 0 0 0
 175 2 1 1.30581 1.69433 97.4984 0 0 0
 176 2 1 2.01307 0.436344 98.7263 0 0 0
 177 2 1 1.27659 -0.731564 100.088 0 0 0
 178 2 1 -0.175223 -0.682062 101.338 0 0 0
 179 2 1 -0.829662 0.695701 102.565 0 0 0
 180 2 1 -0.0259658 1.94822 103.807 0 0 0
 181 2 1 1.37081 1.85717 105.117 0 0 0
 182 2 1 2.03742 0.541746 106.39 0 0 0
 183 2 1 1.19192 -0.669351 107.659 0 0 0
 184 2 1 -0.220694 -0.602229 108.947 0 0 0
 185 2 1 -0.80586 0.717369 110.265 0 0 0
 186 2 1 0.107565 1.8346 111.598 0 0 0
 187 2 1 1.55831 1.60824 112.819 0 0 0
 188 2 1 2.01201 0.308707 114.149 0 0 0
 189 2 1 1.06697 -0.691304 115.485 0 0 0
 190 2 1 -0.254211 -0.27693 116.851 0 0 0
 191 2 1 -0.504242 1.10733 118.15 0 0 0
 192 2 1 0.585249 1.96675 119.502 0 0 0
 193 2 1 2.06711 1.54763 120.686 0 0 0
 194 2 2 3.4621 0.4302 121.245 0 0 0
 195 2 2 3.5156 -0.678 122.297 0 0 0
 196 2 2 3.1853 -0.2091 123.87 0 0 0

Bonds
 
       1         1         1       2
       2         1         2       3
       3         1         3       4
       4         1         4       5
       5         1         5       6
       6         1         6       7
       7         1         7       8
       8         1         8       9
       9         1         9      10
      10         1        10      11
      11         1        11      12
      12         1        12      13
      13         1        13      14
      14         1        14      15
      15         1        15      16
      16         1        16      17
      17         1        17      18
      18         1        18      19
      19         1        19      20
      20         1        20      21
      21         1        21      22
      22         1        22      23
      23         1        23      24
      24         1        24      25
      25         1        25      26
      26         1        26      27
      27         1        27      28
      28         1        28      29
      29         1        29      30
      30         1        30      31
      31         1        31      32
      32         1        32      33
      33         1        33      34
      34         1        34      35
      35         1        35      36
      36         1        36      37
      37         1        37      38
      38         1        38      39
      39         1        39      40
      40         1        40      41
      41         1        41      42
      42         1        42      43
      43         1        43      44
      44         1        44      45
      45         1        45      46
      46         1        46      47
      47         1        47      48
      48         1        48      49
      49         1        49      50
      50         1        50      51
      51         1        51      52
      52         1        52      53
      53         1        53      54
      54         1        54      55
      55         1        55      56
      56         1        56      57
      57         1        57      58
      58         1        58      59
      59         1        59      60
      60         1        60      61
      61         1        61      62
      62         1        62      63
      63         1        63      64
      64         1        64      65
      65         1        65      66
      66         1        66      67
      67         1        67      68
      68         1        68      69
      69         1        69      70
      70         1        70      71
      71         1        71      72
      72         1        72      73
      73         1        73      74
      74         1        74      75
      75         1        75      76
      76         1        76      77
      77         1        77      78
      78         1        78      79
      79         1        79      80
      80         1        80      81
      81         1        81      82
      82         1        82      83
      83         1        83      84
      84         1        84      85
      85         1        85      86
      86         1        86      87
      87         1        87      88
      88         1        88      89
      89         1        89      90
      90         1        90      91
      91         1        91      92
      92         1        92      93
      93         1        93      94
      94         1        94      95
      95         1        95      96
      96         1        96      97
      97         1        97      98
      98         1        99     100
      99         1       100     101
     100         1       101     102
     101         1       102     103
     102         1       103     104
     103         1       104     105
     104         1       105     106
     105         1       106     107
     106         1       107     108
     107         1       108     109
     108         1       109     110
     109         1       110     111
     110         1       111     112
     111         1       112     113
     112         1       113     114
     113         1       114     115
     114         1       115     116
     115         1       116     117
     116         1       117     118
     117         1       118     119
     118         1       119     120
     119         1       120     121
     120         1       121     122
     121         1       122     123
     122         1       123     124
     123         1       124     125
     124         1       125     126
     125         1       126     127
     126         1       127     128
     127         1       128     129
     128         1       129     130
     129         1       130     131
     130         1       131     132
     131         1       132     133
     132         1       133     134
     133         1       134     135
     134         1       135     136
     135         1       136     137
     136         1       137     138
     137         1       138     139
     138         1       139     140
     139         1       140     141
     140         1       141     142
     141         1       142     143
     142         1       143     144
     143         1       144     145
     144         1       145     146
     145         1       146     147
     146         1       147     148
     147         1       148     149
     148         1       149     150
     149         1       150     151
     150         1       151     152
     151         1       152     153
     152         1       153     154
     153         1       154     155
     154         1       155     156
     155         1       156     157
     156         1       157     158
     157         1       158     159
     158         1       159     160
     159         1       160     161
     160         1       161     162
     161         1       162     163
     162         1       163     164
     163         1       164     165
     164         1       165     166
     165         1       166     167
     166         1       167     168
     167         1       168     169
     168         1       169     170
     169         1       170     171
     170         1       171     172
     171         1       172     173
     172         1       173     174
     173         1       174     175
     174         1       175     176
     175         1       176     177
     176         1       177     178
     177         1       178     179
     178         1       179     180
     179         1       180     181
     180         1       181     182
     181         1       182     183
     182         1       183     184
     183         1       184     185
     184         1       185     186
     185         1       186     187
     186         1       187     188
     187         1       188     189
     188         1       189     190
     189         1       190     191
     190         1       191     192
     191         1       192     193
     192         1       193     194
     193         1       194     195
     194         1       195     196
 
Angles
 
           1           1           1           2           3
           2           1           2           3           4
           3           1           3           4           5
           4           1           4           5           6
           5           1           5           6           7
           6           1           6           7           8
           7           1           7           8           9
           8           1           8           9          10
           9           1           9          10          11
          10           1          10          11          12
          11           1          11          12          13
          12           1          12          13          14
          13           1          13          14          15
          14           1          14          15          16
          15           1          15          16          17
          16           1          16          17          18
          17           1          17          18          19
          18           1          18          19          20
          19           1          19          20          21
          20           1          20          21          22
          21           1          21          22          23
          22           1          22          23          24
          23           1          23          24          25
          24           1          24          25          26
          25           1          25          26          27
          26           1          26          27          28
          27           1          27          28          29
          28           1          28          29          30
          29           1          29          30          31
          30           1          30          31          32
          31           1          31          32          33
          32           1          32          33          34
          33           1          33          34          35
          34           1          34          35          36
          35           1          35          36          37
          36           1          36          37          38
          37           1          37          38          39
          38           1          38          39          40
          39           1          39          40          41
          40           1          40          41          42
          41           1          41          42          43
          42           1          42          43          44
          43           1          43          44          45
          44           1          44          45          46
          45           1          45          46          47
          46           1          46          47          48
          47           1          47          48          49
          48           1          48          49          50
          49           1          49          50          51
          50           1          50          51          52
          51           1          51          52          53
          52           1          52          53          54
          53           1          53          54          55
          54           1          54          55          56
          55           1          55          56          57
          56           1          56          57          58
          57           1          57          58          59
          58           1          58          59          60
          59           1          59          60          61
          60           1          60          61          62
          61           1          61          62          63
          62           1          62          63          64
          63           1          63          64          65
          64           1          64          65          66
          65           1          65          66          67
          66           1          66          67          68
          67           1          67          68          69
          68           1          68          69          70
          69           1          69          70          71
          70           1          70          71          72
          71           1          71          72          73
          72           1          72          73          74
          73           1          73          74          75
          74           1          74          75          76
          75           1          75          76          77
          76           1          76          77          78
          77           1          77          78          79
          78           1          78          79          80
          79           1          79          80          81
          80           1          80          81          82
          81           1          81          82          83
          82           1          82          83          84
          83           1          83          84          85
          84           1          84          85          86
          85           1          85          86          87
          86           1          86          87          88
          87           1          87          88          89
          88           1          88          89          90
          89           1          89          90          91
          90           1          90          91          92
          91           1          91          92          93
          92           1          92          93          94
          93           1          93          94          95
          94           1          94          95          96
          95           1          95          96          97
          96           1          96          97          98
          97           1          99         100         101
          98           1         100         101         102
          99           1         101         102         103
         100           1         102         103         104
         101           1         103         104         105
         102           1         104         105         106
         103           1         105         106         107
         104           1         106         107         108
         105           1         107         108         109
         106           1         108         109         110
         107           1         109         110         111
         108           1         110         111         112
         109           1         111         112         113
         110           1         112         113         114
         111           1         113         114         115
         112           1         114         115         116
         113           1         115         116         117
         114           1         116         117         118
         115           1         117         118         119
         116           1         118         119         120
         117           1         119         120         121
         118           1         120         121         122
         119           1         121         122         123
         120           1         122         123         124
         121           1         123         124         125
         122           1         124         125         126
         123           1         125         126         127
         124           1         126         127         128
         125           1         127         128         129
         126           1         128         129         130
         127           1         129         130         131
         128           1         130         131         132
         129           1         131         132         133
         130           1         132         133         134
         131           1         133         134         135
         132           1         134         135         136
         133           1         135         136         137
         134           1         136         137         138
         135           1         137         138         139
         136           1         138         139         140
         137           1         139         140         141
         138           1         140         141         142
         139           1         141         142         143
         140           1         142         143         144
         141           1         143         144         145
         142           1         144         145         146
         143           1         145         146         147
         144           1         146         147         148
         145           1         147         148         149
         146           1         148         149         150
         147           1         149         150         151
         148           1         150         151         152
         149           1         151         152         153
         150           1         152         153         154
         151           1         153         154         155
         152           1         154         155         156
         153           1         155         156         157
         154           1         156         157         158
         155           1         157         158         159
         156           1         158         159         160
         157           1         159         160         161
         158           1         160         161         162
         159           1         161         162         163
         160           1         162         163         164
         161           1         163         164         165
         162           1         164         165         166
         163           1         165         166         167
         164           1         166         167         168
         165           1         167         168         169
         166           1         168         169         170
         167           1         169         170         171
         168           1         170         171         172
         169           1         171         172         173
         170           1         172         173         174
         171           1         173         174         175
         172           1         174         175         176
         173           1         175         176         177
         174           1         176         177         178
         175           1         177         178         179
         176           1         178         179         180
         177           1         179         180         181
         178           1         180         181         182
         179           1         181         182         183
         180           1         182         183         184
         181           1         183         184         185
         182           1         184         185         186
         183           1         185         186         187
         184           1         186         187         188
         185           1         187         188         189
         186           1         188         189         190
         187           1         189         190         191
         188           1         190         191         192
         189           1         191         192         193
         190           1         192         193         194
         191           1         193         194         195
         192           1         194         195         196
 
Dihedrals
 
           1           1           1           2           3           4
           2           1           2           3           4           5
           3           1           3           4           5           6
           4           1           4           5           6           7
           5           1           5           6           7           8
           6           1           6           7           8           9
           7           1           7           8           9          10
           8           1           8           9          10          11
           9           1           9          10          11          12
          10           1          10          11          12          13
          11           1          11          12          13          14
          12           1          12          13          14          15
          13           1          13          14          15          16
          14           1          14          15          16          17
          15           1          15          16          17          18
          16           1          16          17          18          19
          17           1          17          18          19          20
          18           1          18          19          20          21
          19           1          19          20          21          22
          20           1          20          21          22          23
          21           1          21          22          23          24
          22           1          22          23          24          25
          23           1          23          24          25          26
          24           1          24          25          26          27
          25           1          25          26          27          28
          26           1          26          27          28          29
          27           1          27          28          29          30
          28           1          28          29          30          31
          29           1          29          30          31          32
          30           1          30          31          32          33
          31           1          31          32          33          34
          32           1          32          33          34          35
          33           1          33          34          35          36
          34           1          34          35          36          37
          35           1          35          36          37          38
          36           1          36          37          38          39
          37           1          37          38          39          40