LAMMPS UA chain data file
 
         196  atoms
         194  bonds
         192  angles
         190  dihedrals
           0  impropers
 
           3  atom types
           1  bond types
           1  angle types
           1  dihedral types
           0  improper types
 
    -400.000000     400.000000 xlo xhi
    -400.000000     400.000000 ylo yhi
    -0.050000      124.000000 zlo zhi
 
Masses
 
  1   14.00
  2   14.00
  3   14.00
 
Atoms

 1 1 3 -2.99596 -0.983276 -0.0123858 0 0 0
 2 1 3 -2.70431 -0.296584 1.52382 0 0 0
 3 1 3 -1.84113 0.877468 2.37365 0 0 0
 4 1 1 -1.42277 1.30139 3.9829 0 0 0
 5 1 1 0.0268692 1.18361 4.86346 0 0 0
 6 1 1 0.613235 0.787479 6.44227 0 0 0
 7 1 1 0.846125 -0.644468 7.40926 0 0 0
 8 1 1 0.579499 -1.17703 8.99609 0 0 0
 9 1 1 -0.746755 -1.67052 9.98518 0 0 0
 10 1 1 -1.37737 -1.53735 11.5542 0 0 0
 11 1 1 -2.18571 -0.358247 12.5055 0 0 0
 12 1 1 -2.17446 0.280285 14.1115 0 0 0
 13 1 1 -1.32102 1.37606 15.1004 0 0 0
 14 1 1 -0.63211 1.56761 16.6483 0 0 0
 15 1 1 0.718095 0.988231 17.5614 0 0 0
 16 1 1 0.958074 0.423127 19.1195 0 0 0
 17 1 1 0.706376 -0.93322 20.1113 0 0 0
 18 1 1 0.270404 -1.3868 21.6834 0 0 0
 19 1 1 -1.12702 -1.40715 22.6833 0 0 0
 20 1 1 -1.67267 -1.15757 24.2391 0 0 0
 21 1 1 -1.97358 0.156588 25.2999 0 0 0
 22 1 1 -1.72597 0.788222 26.8722 0 0 0
 23 1 1 -0.506216 1.53582 27.8648 0 0 0
 24 1 1 0.310283 1.36878 29.4031 0 0 0
 25 1 1 1.25217 0.30169 30.3531 0 0 0
 26 1 1 1.30667 -0.134843 31.979 0 0 0
 27 1 1 0.734481 -1.39849 32.9598 0 0 0
 28 1 1 0.0850084 -1.71735 34.5258 0 0 0
 29 1 1 -1.27329 -1.3244 35.5081 0 0 0
 30 1 1 -1.71775 -0.82967 37.0523 0 0 0
 31 1 1 -1.56549 0.598956 37.9752 0 0 0
 32 1 1 -1.21947 1.21119 39.5477 0 0 0
 33 1 1 0.108125 1.48967 40.5813 0 0 0
 34 1 1 0.688508 1.27983 42.1795 0 0 0
 35 1 1 1.27097 0.0518497 43.2012 0 0 0
 36 1 1 1.04184 -0.583329 44.7981 0 0 0
 37 1 1 -0.101249 -1.44852 45.7158 0 0 0
 38 1 1 -0.82931 -1.3588 47.2351 0 0 0
 39 1 1 -1.83901 -0.374616 48.2242 0 0 0
 40 1 1 -1.88268 0.183453 49.8169 0 0 0
 41 1 1 -1.10562 1.38283 50.8083 0 0 0
 42 1 1 -0.545249 1.57262 52.4294 0 0 0
 43 1 1 0.81643 1.09953 53.3231 0 0 0
 44 1 1 1.18299 0.439694 54.8384 0 0 0
 45 1 1 1.03485 -0.958915 55.8478 0 0 0
 46 1 1 0.467835 -1.44134 57.4014 0 0 0
 47 1 1 -0.937102 -1.50548 58.4471 0 0 0
 48 1 1 -1.38668 -1.06433 60.0771 0 0 0
 49 1 1 -1.65634 0.30287 61.0537 0 0 0
 50 1 1 -1.29521 0.844745 62.6731 0 0 0
 51 1 1 -0.0760665 1.54059 63.6317 0 0 0
 52 1 1 0.532075 1.31908 65.2115 0 0 0
 53 1 1 1.28274 0.182323 66.1976 0 0 0
 54 1 1 1.35546 -0.406133 67.7798 0 0 0
 55 1 1 0.461906 -1.50228 68.8108 0 0 0
 56 1 1 -0.184339 -1.50426 70.4071 0 0 0
 57 1 1 -1.34124 -0.816525 71.3805 0 0 0
 58 1 1 -1.56926 -0.393459 73.0109 0 0 0
 59 1 1 -1.19458 0.982407 73.9045 0 0 0
 60 1 1 -0.735985 1.42209 75.4658 0 0 0
 61 1 1 0.698637 1.50396 76.3862 0 0 0
 62 1 1 1.31032 1.04463 77.9374 0 0 0
 63 1 1 1.7911 -0.33114 78.8439 0 0 0
 64 1 1 1.70494 -0.850867 80.4737 0 0 0
 65 1 1 0.502086 -1.40192 81.5396 0 0 0
 66 1 1 -0.0501041 -1.27318 83.1376 0 0 0
 67 1 1 -0.896755 -0.153883 84.098 0 0 0
 68 1 1 -0.88062 0.461886 85.7239 0 0 0
 69 1 1 0.0053516 1.56926 86.6204 0 0 0
 70 1 1 0.690575 1.81521 88.1504 0 0 0
 71 1 1 1.99556 1.17191 89.082 0 0 0
 72 1 1 2.26141 0.685312 90.6998 0 0 0
 73 1 1 2.00845 -0.744457 91.6777 0 0 0
 74 1 1 1.4651 -1.07827 93.2754 0 0 0
 75 1 1 0.0684314 -1.14728 94.2558 0 0 0
 76 1 1 -0.431824 -0.71862 95.8578 0 0 0
 77 1 1 -0.838207 0.643098 96.794 0 0 0
 78 1 1 -0.63378 1.24303 98.3715 0 0 0
 79 1 1 0.590175 1.97362 99.3275 0 0 0
 80 1 1 1.20751 1.9702 100.926 0 0 0
 81 1 1 2.1934 1.1066 101.971 0 0 0
 82 1 1 2.20134 0.412165 103.516 0 0 0
 83 1 1 1.48714 -0.802245 104.469 0 0 0
 84 1 1 1.05153 -0.996781 106.142 0 0 0
 85 1 1 -0.261105 -0.557099 107.139 0 0 0
 86 1 1 -0.578569 -0.0705665 108.732 0 0 0
 87 1 1 -0.340314 1.25209 109.748 0 0 0
 88 1 1 0.068209 1.69853 111.323 0 0 0
 89 1 1 1.43636 1.8199 112.27 0 0 0
 90 1 1 1.90144 1.47301 113.898 0 0 0
 91 1 1 2.27194 0.063854 114.868 0 0 0
 92 1 1 2.1124 -0.491956 116.479 0 0 0
 93 1 1 0.851834 -1.27218 117.395 0 0 0
 94 1 1 0.0977258 -1.09977 118.901 0 0 0
 95 1 1 -1.0734 -0.150759 119.684 0 0 0
 96 1 2 -1.4379 0.4302 121.245 0 0 0
 97 1 2 -1.3844 -0.678 122.297 0 0 0
 98 1 2 -1.7147 -0.2091 123.87 0 0 0
 99 2 3 1.67456 0.501076 -0.0123858 0 0 0
 100 2 3 0.726323 -0.493032 0.918612 0 0 0
 101 2 3 0.726403 -0.901863 2.49194 0 0 0
 102 2 1 -0.453233 -1.7278 3.37866 0 0 0
 103 2 1 -0.966336 -1.76317 5.03767 0 0 0
 104 2 1 -2.12109 -0.946291 6.08048 0 0 0
 105 2 1 -2.23565 -0.219022 7.64329 0 0 0
 106 2 1 -1.57212 1.08672 8.5933 0 0 0
 107 2 1 -0.96809 1.35228 10.1933 0 0 0
 108 2 1 0.423585 1.12638 11.1846 0 0 0
 109 2 1 0.728051 0.674307 12.8114 0 0 0
 110 2 1 0.757059 -0.728715 13.738 0 0 0
 111 2 1 0.411025 -1.08361 15.3428 0 0 0
 112 2 1 -0.974942 -1.44294 16.2956 0 0 0
 113 2 1 -1.47426 -1.20081 17.9016 0 0 0
 114 2 1 -2.21612 -0.0368774 18.8488 0 0 0
 115 2 1 -2.04129 0.606694 20.4655 0 0 0
 116 2 1 -0.999186 1.56933 21.4351 0 0 0
 117 2 1 -0.331071 1.57612 23.0081 0 0 0
 118 2 1 0.830935 0.768401 23.9437 0 0 0
 119 2 1 1.05895 0.164585 25.536 0 0 0
 120 2 1 0.569589 -1.17535 26.4529 0 0 0
 121 2 1 0.0745854 -1.57947 28.0515 0 0 0
 122 2 1 -1.21467 -1.2607 29.1367 0 0 0
 123 2 1 -1.51409 -0.955927 30.7674 0 0 0
 124 2 1 -1.67233 0.468645 31.7317 0 0 0
 125 2 1 -1.37626 0.954664 33.3261 0 0 0
 126 2 1 -0.0967171 1.4329 34.3406 0 0 0
 127 2 1 0.556769 1.1756 35.8869 0 0 0
 128 2 1 1.29481 -0.0211156 36.8269 0 0 0
 129 2 1 1.28297 -0.637075 38.4633 0 0 0
 130 2 1 0.319152 -1.56675 39.5055 0 0 0
 131 2 1 -0.39741 -1.56826 41.0414 0 0 0
 132 2 1 -1.60158 -0.773324 41.8618 0 0 0
 133 2 1 -1.87802 -0.0570927 43.3698 0 0 0
 134 2 1 -1.43654 1.24583 44.3997 0 0 0
 135 2 1 -0.935342 1.57728 46.0057 0 0 0
 136 2 1 0.42482 1.48082 47.0319 0 0 0
 137 2 1 0.943442 0.995352 48.6236 0 0 0
 138 2 1 1.17387 -0.396401 49.5924 0 0 0
 139 2 1 0.740571 -1.02989 51.1417 0 0 0
 140 2 1 -0.586878 -1.53123 52.181 0 0 0
 141 2 1 -1.16366 -1.22122 53.8134 0 0 0
 142 2 1 -1.83472 0.0246659 54.7611 0 0 0
 143 2 1 -1.55861 0.723832 56.3683 0 0 0
 144 2 1 -0.415396 1.50066 57.299 0 0 0
 145 2 1 0.294358 1.33299 58.8579 0 0 0
 146 2 1 1.32023 0.360382 59.8095 0 0 0
 147 2 1 1.40314 -0.24333 61.3831 0 0 0
 148 2 1 0.645664 -1.43919 62.4075 0 0 0
 149 2 1 0.098188 -1.65524 64.0549 0 0 0
 150 2 1 -1.29007 -1.23581 65.0267 0 0 0
 151 2 1 -1.61026 -0.734265 66.6299 0 0 0
 152 2 1 -1.52777 0.706751 67.4992 0 0 0
 153 2 1 -1.12231 1.27761 69.0058 0 0 0
 154 2 1 0.189386 1.62716 69.9423 0 0 0
 155 2 1 0.813071 1.37225 71.5169 0 0 0
 156 2 1 1.51816 0.135096 72.4877 0 0 0
 157 2 1 1.46919 -0.529721 74.1021 0 0 0
 158 2 1 0.437877 -1.40433 75.099 0 0 0
 159 2 1 -0.117986 -1.49769 76.6858 0 0 0
 160 2 1 -1.17336 -0.69293 77.7309 0 0 0
 161 2 1 -1.22486 -0.117512 79.3897 0 0 0
 162 2 1 -0.619301 1.25735 80.2614 0 0 0
 163 2 1 0.0383018 1.69263 81.8007 0 0 0
 164 2 1 1.46277 1.39051 82.684 0 0 0
 165 2 1 1.93944 1.01158 84.2655 0 0 0
 166 2 1 2.0779 -0.36962 85.3113 0 0 0
 167 2 1 1.77693 -0.935517 86.8553 0 0 0
 168 2 1 0.417943 -1.30083 87.8483 0 0 0
 169 2 1 -0.0476054 -0.972449 89.4473 0 0 0
 170 2 1 -0.767663 0.233437 90.4221 0 0 0
 171 2 1 -0.629134 0.88935 92.0028 0 0 0
 172 2 1 0.396655 1.78879 93.0428 0 0 0
 173 2 1 1.07813 1.82303 94.5804 0 0 0
 174 2 1 2.18246 0.992473 95.5507 0 0 0
 175 2 1 2.33791 0.462699 97.1862 0 0 0
 176 2 1 1.74631 -0.759113 98.2393 0 0 0
 177 2 1 1.17308 -0.964658 99.8312 0 0 0
 178 2 1 -0.198129 -0.655054 100.803 0 0 0
 179 2 1 -0.699983 -0.239493 102.407 0 0 0
 180 2 1 -0.703289 1.13507 103.426 0 0 0
 181 2 1 -0.301592 1.66354 105.058 0 0 0
 182 2 1 1.05082 2.05356 106.014 0 0 0
 183 2 1 1.76839 1.82929 107.559 0 0 0
 184 2 1 2.42146 0.559615 108.509 0 0 0
 185 2 1 2.39019 -0.165182 110.062 0 0 0
 186 2 1 1.39834 -1.14854 111.041 0 0 0
 187 2 1 0.678999 -1.23085 112.58 0 0 0
 188 2 1 -0.440803 -0.402414 113.594 0 0 0
 189 2 1 -0.643064 0.236189 115.112 0 0 0
 190 2 1 -0.164112 1.56074 116.151 0 0 0
 191 2 1 0.474462 1.90526 117.695 0 0 0
 192 2 1 1.85779 1.7345 118.669 0 0 0
 193 2 1 2.14955 0.965182 120.217 0 0 0
 194 2 2 3.4621 0.4302 121.245 0 0 0
 195 2 2 3.5156 -0.678 122.297 0 0 0
 196 2 2 3.1853 -0.2091 123.87 0 0 0

Bonds
 
       1         1         1       2
       2         1         2       3
       3         1         3       4
       4         1         4       5
       5         1         5       6
       6         1         6       7
       7         1         7       8
       8         1         8       9
       9         1         9      10
      10         1        10      11
      11         1        11      12
      12         1        12      13
      13         1        13      14
      14         1        14      15
      15         1        15      16
      16         1        16      17
      17         1        17      18
      18         1        18      19
      19         1        19      20
      20         1        20      21
      21         1        21      22
      22         1        22      23
      23         1        23      24
      24         1        24      25
      25         1        25      26
      26         1        26      27
      27         1        27      28
      28         1        28      29
      29         1        29      30
      30         1        30      31
      31         1        31      32
      32         1        32      33
      33         1        33      34
      34         1        34      35
      35         1        35      36
      36         1        36      37
      37         1        37      38
      38         1        38      39
      39         1        39      40
      40         1        40      41
      41         1        41      42
      42         1        42      43
      43         1        43      44
      44         1        44      45
      45         1        45      46
      46         1        46      47
      47         1        47      48
      48         1        48      49
      49         1        49      50
      50         1        50      51
      51         1        51      52
      52         1        52      53
      53         1        53      54
      54         1        54      55
      55         1        55      56
      56         1        56      57
      57         1        57      58
      58         1        58      59
      59         1        59      60
      60         1        60      61
      61         1        61      62
      62         1        62      63
      63         1        63      64
      64         1        64      65
      65         1        65      66
      66         1        66      67
      67         1        67      68
      68         1        68      69
      69         1        69      70
      70         1        70      71
      71         1        71      72
      72         1        72      73
      73         1        73      74
      74         1        74      75
      75         1        75      76
      76         1        76      77
      77         1        77      78
      78         1        78      79
      79         1        79      80
      80         1        80      81
      81         1        81      82
      82         1        82      83
      83         1        83      84
      84         1        84      85
      85         1        85      86
      86         1        86      87
      87         1        87      88
      88         1        88      89
      89         1        89      90
      90         1        90      91
      91         1        91      92
      92         1        92      93
      93         1        93      94
      94         1        94      95
      95         1        95      96
      96         1        96      97
      97         1        97      98
      98         1        99     100
      99         1       100     101
     100         1       101     102
     101         1       102     103
     102         1       103     104
     103         1       104     105
     104         1       105     106
     105         1       106     107
     106         1       107     108
     107         1       108     109
     108         1       109     110
     109         1       110     111
     110         1       111     112
     111         1       112     113
     112         1       113     114
     113         1       114     115
     114         1       115     116
     115         1       116     117
     116         1       117     118
     117         1       118     119
     118         1       119     120
     119         1       120     121
     120         1       121     122
     121         1       122     123
     122         1       123     124
     123         1       124     125
     124         1       125     126
     125         1       126     127
     126         1       127     128
     127         1       128     129
     128         1       129     130
     129         1       130     131
     130         1       131     132
     131         1       132     133
     132         1       133     134
     133         1       134     135
     134         1       135     136
     135         1       136     137
     136         1       137     138
     137         1       138     139
     138         1       139     140
     139         1       140     141
     140         1       141     142
     141         1       142     143
     142         1       143     144
     143         1       144     145
     144         1       145     146
     145         1       146     147
     146         1       147     148
     147         1       148     149
     148         1       149     150
     149         1       150     151
     150         1       151     152
     151         1       152     153
     152         1       153     154
     153         1       154     155
     154         1       155     156
     155         1       156     157
     156         1       157     158
     157         1       158     159
     158         1       159     160
     159         1       160     161
     160         1       161     162
     161         1       162     163
     162         1       163     164
     163         1       164     165
     164         1       165     166
     165         1       166     167
     166         1       167     168
     167         1       168     169
     168         1       169     170
     169         1       170     171
     170         1       171     172
     171         1       172     173
     172         1       173     174
     173         1       174     175
     174         1       175     176
     175         1       176     177
     176         1       177     178
     177         1       178     179
     178         1       179     180
     179         1       180     181
     180         1       181     182
     181         1       182     183
     182         1       183     184
     183         1       184     185
     184         1       185     186
     185         1       186     187
     186         1       187     188
     187         1       188     189
     188         1       189     190
     189         1       190     191
     190         1       191     192
     191         1       192     193
     192         1       193     194
     193         1       194     195
     194         1       195     196
 
Angles
 
           1           1           1           2           3
           2           1           2           3           4
           3           1           3           4           5
           4           1           4           5           6
           5           1           5           6           7
           6           1           6           7           8
           7           1           7           8           9
           8           1           8           9          10
           9           1           9          10          11
          10           1          10          11          12
          11           1          11          12          13
          12           1          12          13          14
          13           1          13          14          15
          14           1          14          15          16
          15           1          15          16          17
          16           1          16          17          18
          17           1          17          18          19
          18           1          18          19          20
          19           1          19          20          21
          20           1          20          21          22
          21           1          21          22          23
          22           1          22          23          24
          23           1          23          24          25
          24           1          24          25          26
          25           1          25          26          27
          26           1          26          27          28
          27           1          27          28          29
          28           1          28          29          30
          29           1          29          30          31
          30           1          30          31          32
          31           1          31          32          33
          32           1          32          33          34
          33           1          33          34          35
          34           1          34          35          36
          35           1          35          36          37
          36           1          36          37          38
          37           1          37          38          39
          38           1          38          39          40
          39           1          39          40          41
          40           1          40          41          42
          41           1          41          42          43
          42           1          42          43          44
          43           1          43          44          45
          44           1          44          45          46
          45           1          45          46          47
          46           1          46          47          48
          47           1          47          48          49
          48           1          48          49          50
          49           1          49          50          51
          50           1          50          51          52
          51           1          51          52          53
          52           1          52          53          54
          53           1          53          54          55
          54           1          54          55          56
          55           1          55          56          57
          56           1          56          57          58
          57           1          57          58          59
          58           1          58          59          60
          59           1          59          60          61
          60           1          60          61          62
          61           1          61          62          63
          62           1          62          63          64
          63           1          63          64          65
          64           1          64          65          66
          65           1          65          66          67
          66           1          66          67          68
          67           1          67          68          69
          68           1          68          69          70
          69           1          69          70          71
          70           1          70          71          72
          71           1          71          72          73
          72           1          72          73          74
          73           1          73          74          75
          74           1          74          75          76
          75           1          75          76          77
          76           1          76          77          78
          77           1          77          78          79
          78           1          78          79          80
          79           1          79          80          81
          80           1          80          81          82
          81           1          81          82          83
          82           1          82          83          84
          83           1          83          84          85
          84           1          84          85          86
          85           1          85          86          87
          86           1          86          87          88
          87           1          87          88          89
          88           1          88          89          90
          89           1          89          90          91
          90           1          90          91          92
          91           1          91          92          93
          92           1          92          93          94
          93           1          93          94          95
          94           1          94          95          96
          95           1          95          96          97
          96           1          96          97          98
          97           1          99         100         101
          98           1         100         101         102
          99           1         101         102         103
         100           1         102         103         104
         101           1         103         104         105
         102           1         104         105         106
         103           1         105         106         107
         104           1         106         107         108
         105           1         107         108         109
         106           1         108         109         110
         107           1         109         110         111
         108           1         110         111         112
         109           1         111         112         113
         110           1         112         113         114
         111           1         113         114         115
         112           1         114         115         116
         113           1         115         116         117
         114           1         116         117         118
         115           1         117         118         119
         116           1         118         119         120
         117           1         119         120         121
         118           1         120         121         122
         119           1         121         122         123
         120           1         122         123         124
         121           1         123         124         125
         122           1         124         125         126
         123           1         125         126         127
         124           1         126         127         128
         125           1         127         128         129
         126           1         128         129         130
         127           1         129         130         131
         128           1         130         131         132
         129           1         131         132         133
         130           1         132         133         134
         131           1         133         134         135
         132           1         134         135         136
         133           1         135         136         137
         134           1         136         137         138
         135           1         137         138         139
         136           1         138         139         140
         137           1         139         140         141
         138           1         140         141         142
         139           1         141         142         143
         140           1         142         143         144
         141           1         143         144         145
         142           1         144         145         146
         143           1         145         146         147
         144           1         146         147         148
         145           1         147         148         149
         146           1         148         149         150
         147           1         149         150         151
         148           1         150         151         152
         149           1         151         152         153
         150           1         152         153         154
         151           1         153         154         155
         152           1         154         155         156
         153           1         155         156         157
         154           1         156         157         158
         155           1         157         158         159
         156           1         158         159         160
         157           1         159         160         161
         158           1         160         161         162
         159           1         161         162         163
         160           1         162         163         164
         161           1         163         164         165
         162           1         164         165         166
         163           1         165         166         167
         164           1         166         167         168
         165           1         167         168         169
         166           1         168         169         170
         167           1         169         170         171
         168           1         170         171         172
         169           1         171         172         173
         170           1         172         173         174
         171           1         173         174         175
         172           1         174         175         176
         173           1         175         176         177
         174           1         176         177         178
         175           1         177         178         179
         176           1         178         179         180
         177           1         179         180         181
         178           1         180         181         182
         179           1         181         182         183
         180           1         182         183         184
         181           1         183         184         185
         182           1         184         185         186
         183           1         185         186         187
         184           1         186         187         188
         185           1         187         188         189
         186           1         188         189         190
         187           1         189         190         191
         188           1         190         191         192
         189           1         191         192         193
         190           1         192         193         194
         191           1         193         194         195
         192           1         194         195         196
 
Dihedrals
 
           1           1           1           2           3           4
           2           1           2           3           4           5
           3           1           3           4           5           6
           4           1           4           5           6           7
           5           1           5           6           7           8
           6           1           6           7           8           9
           7           1           7           8           9          10
           8           1           8           9          10          11
           9           1           9          10          11          12
          10           1          10          11          12          13
          11           1          11          12          13          14
          12           1          12          13          14          15
          13           1          13          14          15          16
          14           1          14          15          16          17
          15           1          15          16          17          18
          16           1          16          17          18          19
          17           1          17          18          19          20
          18           1          18          19          20          21
          19           1          19          20          21          22
          20           1          20          21          22          23
          21           1          21          22          23          24
          22           1          22          23          24          25
          23           1          23          24          25          26
          24           1          24          25          26          27
          25           1          25          26          27          28
          26           1          26          27          28          29
          27           1          27          28          29          30
          28           1          28          29          30          31
          29           1          29          30          31          32
          30           1          30          31          32          33
          31           1          31          32          33          34
          32           1          32          33          34          35
          33           1          33          34          35          36
          34           1          34          35          36          37
          35           1          35          36          37          38
          36           1          36          37          38          39
          37           1          37          38          39          40