LAMMPS (16 Mar 2018)
# 1. INITIALIZATION
#allows pair, bond, bending and dihedral interactions
atom_style molecular

  # periodic (video game) boundaries in all cartesian directions
boundary p p s

  # uses real units (instead of units based on pair potential parameters).  List of units used in manual
units real

###########
# 2. ATOM DEFINITION
##########

   ##
   # Read in data from starting configuration file
   ##

#read_data chainconfig.dat

 #use to restart
read_restart RESTART
  orthogonal box = (-400 -400 -0.0371672) to (400 400 123.895)
  2 by 2 by 1 MPI processor grid
  196 atoms
  194 bonds
  192 angles
  190 dihedrals
  2 = max # of 1-2 neighbors
  2 = max # of 1-3 neighbors
  4 = max # of 1-4 neighbors
  6 = max # of special neighbors

   ##
   # Specify the nature of the bond interactions
   ##


bond_style harmonic
bond_coeff 1 450 1.54

special_bonds lj 0.0 0.0 0.0 angle no dihedral no

angle_style harmonic
angle_coeff 1 62.1  114.00

dihedral_style opls
dihedral_coeff * 1.4110 -0.2708 3.143 0.0

mass * 14.0

pair_style lj/cut 14.0
pair_coeff 1 1 0.0912 3.95 14.0
#pair_modify tail yes

group twistables type 3
6 atoms in group twistables
group freeze type 2
6 atoms in group freeze
fix startend freeze setforce 0.0 0.0 0.0
fix startend0 twistables setforce 0.0 0.0 0.0

################
# 3.  Simulation Settings
###############

neighbor        2.0 bin
neigh_modify    every 1 delay 0 check yes



# Define some variables
variable Lx          equal xhi-xlo   # Ang
variable Ly          equal yhi-ylo   # Ang
variable Lz          equal zhi-zlo   # Ang

variable dz          equal ${Lz}/30  # Ang
variable dz          equal 123.931948666893/30  

variable zzlo        equal zlo+0.05  # Ang
variable zzhi        equal zhi  # Ang
variable vol         equal ${Lx}*${Ly}*${Lz}  # Ang^3
variable vol         equal 800*${Ly}*${Lz}  
variable vol         equal 800*800*${Lz}  
variable vol         equal 800*800*123.931948666893  
variable TEMP        equal 300.00 # K
variable TThi        equal 320.00 # K
variable TTlo        equal 280.00 # K
variable dt          equal 1.25 # fs

timestep     ${dt}
timestep     1.25

variable zlo1      equal ${zzlo}+2.7
variable zlo1      equal 0.0128327665533126+2.7
variable zlo2      equal ${zzlo}+8.4
variable zlo2      equal 0.0128327665533126+8.4
variable zhi1      equal ${zzlo}+115.5
variable zhi1      equal 0.0128327665533126+115.5
variable zhi2      equal ${zzlo}+121
variable zhi2      equal 0.0128327665533126+121

# heat layers

region          hot  block  INF INF INF INF ${zlo1} ${zlo2}
region          hot  block  INF INF INF INF 2.71283276655331 ${zlo2}
region          hot  block  INF INF INF INF 2.71283276655331 8.41283276655331
region          cold block INF INF INF INF ${zhi1} ${zhi2}
region          cold block INF INF INF INF 115.512832766553 ${zhi2}
region          cold block INF INF INF INF 115.512832766553 121.012832766553
compute         Thot all temp/region hot
compute         Tcold all temp/region cold


# 1st equilibration run
fix             1 all nvt temp ${TEMP} ${TEMP} 50
fix             1 all nvt temp 300 ${TEMP} 50
fix             1 all nvt temp 300 300 50
thermo          100
run             8000
Unused restart file peratom fix info:
  fix style: STORE, fix ID: layers_COMPUTE_STORE
Neighbor list info ...
  update every 1 steps, delay 0 steps, check yes
  max neighbors/atom: 2000, page size: 100000
  master list distance cutoff = 16
  ghost atom cutoff = 16
  binsize = 8, bins = 100 100 16
  1 neighbor lists, perpetual/occasional/extra = 1 0 0
  (1) pair lj/cut, perpetual
      attributes: half, newton on
      pair build: half/bin/newton
      stencil: half/bin/3d/newton
      bin: standard
Per MPI rank memory allocation (min/avg/max) = 9.015 | 9.015 | 9.015 Mbytes
Step Temp E_pair E_mol TotEng Press Volume 
302492000    296.11009    1482.3027    5283.7223    6938.1413   -7.9795453     79316447 
302492100    303.04563    1510.8561    5286.7027    6973.7065   -8.0546875     79316447 
302492200    292.06585    1496.4284    5284.5291    6950.7231   -7.8307125     79316447 
302492300     318.9824     1493.681    5296.6269     6975.719   -8.1425969     79316447 
302492400    313.50657    1501.7796    5278.8494    6962.8571    -7.684373     79316447 
302492500    283.89398    1514.6053      5274.63     6954.251   -8.0605588     79316447 
302492600    291.12616     1514.544    5300.2773    6984.0407   -7.7476741     79316447 
302492700    276.13894    1508.3017    5284.4482    6953.2578   -8.1324987     79316447 
302492800    265.07804    1515.2643    5290.3437    6959.6867   -7.8039286     79316447 
302492900    295.47193    1483.4046    5315.9027    6971.0527   -8.1788631     79316447 
302493000    266.35331    1514.0964    5284.6782    6953.5946     -7.90181     79316447 
302493100    299.74643    1515.6465    5290.5124     6980.389   -7.8948948     79316447 
302493200    311.14227    1482.9028    5288.7121    6952.4689   -7.9171039     79316447 
302493300    281.70944    1540.0682    5244.3891    6948.2032   -7.8485045     79316447 
302493400     273.5252    1489.4774     5316.648    6965.1141   -8.0676296     79316447 
302493500    276.77908    1536.2895    5247.2977    6944.4673    -7.758572     79316447 
302493600    258.79762    1471.2608    5343.3304    6965.0194   -8.1294291     79316447 
302493700    282.11753     1537.926    5241.4051    6943.3141   -7.6610011     79316447 
302493800     294.7356    1480.3156    5309.9843    6961.6173   -8.0325715     79316447 
302493900    311.41833    1521.5261    5260.0489    6962.5894   -7.8382731     79316447 
302494000    276.60984    1494.7768     5301.528    6957.0865   -8.0050708     79316447 
302494100     301.0735    1545.1144    5242.7495    6962.8653   -7.8668514     79316447 
302494200    281.76249    1448.2342    5380.6948    6992.7057   -8.1793106     79316447 
302494300    303.18165    1532.5455    5248.6484    6957.4206   -7.7685282     79316447 
302494400    319.32081    1461.9749    5332.9039    6980.4866    -8.254225     79316447 
302494500    292.94119    1572.0191    5226.4062    6968.6997   -7.3677512     79316447 
302494600    294.05726     1499.261     5286.543    6956.7272   -8.2174445     79316447 
302494700     270.3186    1520.8226    5250.3121    6928.2596   -7.5777985     79316447 
302494800     327.4895    1516.6769    5263.0181    6970.0509   -7.9884431     79316447 
302494900    249.36268    1510.0324    5282.8693    6937.8458   -7.8459622     79316447 
302495000    316.00785    1506.1597    5284.3882      6974.23   -7.8379479     79316447 
302495100    302.59092    1482.9015    5286.5686    6945.3534   -8.0442176     79316447 
302495200    319.05096    1514.7374    5275.0096    6975.1979   -7.7937107     79316447 
302495300     304.3043    1491.9756    5294.6331     6963.488   -8.0977595     79316447 
302495400    301.59415    1513.3158    5261.3619    6949.9818   -7.6697114     79316447 
302495500    336.77491     1489.134     5305.691    6990.5781   -8.0901688     79316447 
302495600    294.03022    1471.1086    5310.7995    6952.8155   -7.8829224     79316447 
302495700    312.21794    1525.7442    5279.8578    6987.0812   -7.9290883     79316447 
302495800    312.93133    1480.2581    5297.5328    6959.6847   -7.9345013     79316447 
302495900    296.49022    1546.3453    5247.3922    6966.0748    -7.782714     79316447 
302496000    290.41407     1482.173    5275.0687    6926.0472   -8.0053328     79316447 
302496100    306.64153     1524.052    5260.4076    6962.6974    -7.792674     79316447 
302496200    303.38089    1469.2273    5302.5935    6948.1634   -8.0615443     79316447 
302496300     316.1897     1498.474    5271.7716    6954.0333   -7.9089924     79316447 
302496400    290.39398    1483.7141    5297.6425    6950.1504   -8.0161515     79316447 
302496500    297.79513    1537.3336    5254.7649    6965.1943   -7.8233151     79316447 
302496600    293.90381     1493.593    5293.8215    6958.2485   -8.0606368     79316447 
302496700    297.88963    1519.4048    5263.5635     6956.119   -7.9231686     79316447 
302496800    287.78245    1502.7304    5305.6309    6975.6371   -7.9536393     79316447 
302496900    278.28993    1485.0485    5309.7971    6956.6039   -8.0894297     79316447 
302497000    278.66883    1512.1606    5272.4493    6946.5884   -7.7975256     79316447 
302497100    287.64855    1508.2841    5298.8153    6974.2974   -8.1297608     79316447 
302497200    285.34032    1526.2459     5262.895    6954.9972   -7.7809971     79316447 
302497300    312.27246    1493.2182    5287.3515    6962.0806   -8.0166938     79316447 
302497400    287.01326    1531.5317    5231.7362    6930.0967   -7.8007268     79316447 
302497500    285.79854     1489.352    5310.5138    6965.9885   -8.0084664     79316447 
302497600     315.6135    1535.6597    5245.2544     6964.367   -7.7503701     79316447 
302497700    281.51076    1484.3783    5292.4829    6940.4916   -8.0338855     79316447 
302497800    308.31904      1520.83    5258.6896    6958.7325    -7.890667     79316447 
302497900    321.10024    1498.1395    5295.4289    6980.2105   -7.8173899     79316447 
302498000    297.55441    1497.0985    5286.8999    6956.9542   -7.9686041     79316447 
302498100    298.24922    1516.5123    5272.4087    6962.2807   -7.7650556     79316447 
302498200    347.51228    1479.6905    5322.6453    7004.3301   -8.1081133     79316447 
302498300    295.08754    1515.5161    5267.7328    6954.7709   -7.8696539     79316447 
302498400    302.71012    1536.5086    5257.5851    6970.0465   -7.8385103     79316447 
302498500    288.48931    1492.8661    5291.1399    6951.6927   -8.0058667     79316447 
302498600    312.23276    1510.8213     5263.734     6956.043   -7.8678091     79316447 
302498700    331.64113      1498.83    5297.2012    6988.8003   -7.9547948     79316447 
302498800    292.77706    1460.2315    5331.9106    6962.3211    -8.193629     79316447 
302498900     308.1931    1543.4805       5244.1    6966.7202   -7.7034008     79316447 
302499000     290.6412     1479.803    5300.5833    6949.3239   -8.0704728     79316447 
302499100     283.7661     1542.056    5264.3812    6971.3785   -7.7293662     79316447 
302499200    302.19022    1500.7004    5288.3154    6964.6663     -8.03531     79316447 
302499300    283.04442     1515.221    5275.1235    6954.8664    -7.767445     79316447 
302499400    307.78883    1501.1409     5296.542    6976.5876   -7.9501939     79316447 
302499500     298.5335    1478.8949    5305.9014    6958.3212   -7.9892677     79316447 
302499600    336.33793    1511.7628    5285.1353    6992.3972   -7.9976641     79316447 
302499700     310.3254    1495.0179    5288.7043    6964.1013   -7.9028964     79316447 
302499800    278.56551    1498.7714     5287.632    6948.3218   -7.9549743     79316447 
302499900    325.95643    1515.2843    5276.7472    6981.4962    -7.946046     79316447 
302500000     316.9628    1475.9893    5293.1891    6953.4155   -7.9869683     79316447 
Loop time of 0.490166 on 4 procs for 8000 steps with 196 atoms

Performance: 1762.669 ns/day, 0.014 hours/ns, 16321.009 timesteps/s
100.0% CPU use with 4 MPI tasks x no OpenMP threads

MPI task timing breakdown:
Section |  min time  |  avg time  |  max time  |%varavg| %total
---------------------------------------------------------------
Pair    | 0.10271    | 0.12265    | 0.14392    |   4.3 | 25.02
Bond    | 0.22145    | 0.22728    | 0.23346    |   1.0 | 46.37
Neigh   | 0.0023437  | 0.0023744  | 0.002403   |   0.0 |  0.48
Comm    | 0.079301   | 0.10119    | 0.11954    |   4.5 | 20.64
Output  | 0.00090528 | 0.00095689 | 0.0011108  |   0.0 |  0.20
Modify  | 0.021187   | 0.025777   | 0.030267   |   2.0 |  5.26
Other   |            | 0.009935   |            |       |  2.03

Nlocal:    49 ave 60 max 38 min
Histogram: 2 0 0 0 0 0 0 0 0 2
Nghost:    147 ave 158 max 136 min
Histogram: 2 0 0 0 0 0 0 0 0 2
Neighs:    976.25 ave 1288 max 728 min
Histogram: 1 0 0 1 1 0 0 0 0 1

Total # of neighbors = 3905
Ave neighs/atom = 19.9235
Ave special neighs/atom = 5.87755
Neighbor list builds = 27
Dangerous builds = 0
velocity        all scale ${TEMP}
velocity        all scale 300
unfix           1

# Second Equilibration
fix             1 all nve
fix             hot all langevin ${TThi} ${TThi}  50.0 599804  tally yes
fix             hot all langevin 320 ${TThi}  50.0 599804  tally yes
fix             hot all langevin 320 320  50.0 599804  tally yes
fix             cold all langevin ${TTlo} ${TTlo} 50.0 27859 tally yes
fix             cold all langevin 280 ${TTlo} 50.0 27859 tally yes
fix             cold all langevin 280 280 50.0 27859 tally yes
fix_modify      hot temp Thot
fix_modify      cold temp Tcold


variable        tdiff equal c_Thot-c_Tcold
thermo_style    custom step c_Thot c_Tcold f_hot f_cold v_tdiff
thermo          4000
run             1600000
Per MPI rank memory allocation (min/avg/max) = 10.01 | 10.11 | 10.14 Mbytes
Step c_Thot c_Tcold f_hot f_cold v_tdiff 
302500000    280.66311    636.45246           -0           -0   -355.78935 
302504000     364.5838    588.50562   -5.9329615   -1.1794821   -223.92182 
302508000    239.75672    461.46905   -32.403304    41.945535   -221.71234 
302512000    430.60198    316.26939   -60.651067    62.684022    114.33258 
302516000    308.70807    362.18177   -76.812737    91.612939   -53.473692 
302520000    310.40106    255.89333    -129.3484    106.62412    54.507737 
302524000    582.29685    291.21213   -149.21273    157.05887    291.08472 
302528000    495.49735    390.77302   -200.09128    200.14043    104.72433 
302532000    644.32008    509.93326   -232.39342    226.78125    134.38682 
302536000    380.60025    280.48127   -225.00082    233.79217    100.11898 
302540000    480.10554    443.85337   -253.88082    255.34111    36.252171 
302544000    295.55616    301.90324   -274.27422     267.5105    -6.347071 
302548000    412.21151    270.74397   -297.07527    286.68472    141.46754 
302552000    412.99217     215.3507    -325.4058    316.78187    197.64147 
302556000    213.11373    357.01347   -344.86864    357.79679   -143.89974 
302560000    311.73578    217.41759   -393.45812    392.56609    94.318188 
302564000    297.81947    407.57724   -416.63542    413.49611   -109.75777 
302568000    367.24376    277.68253   -460.12207    464.34209    89.561227 
302572000    278.23932    320.86214    -516.0033    521.66193   -42.622821 
302576000    492.76109    183.99892   -541.01977    521.57892    308.76217 
302580000    246.73802    218.49667   -562.50348    555.33535    28.241349 
302584000    234.57229    442.10809    -567.2609    588.90541   -207.53579 
302588000    208.98535    333.88861   -572.70375    577.86186   -124.90326 
302592000    408.52777    340.64036   -565.23753    571.91269    67.887406 
302596000     384.1327    336.92487   -589.88299     592.8879    47.207837 
302600000    332.90313    452.82657   -612.98849    634.61046   -119.92344 
302604000    542.82321    353.31298   -664.99855    657.33906    189.51023 
302608000    393.08133     215.7357   -691.82479    713.65566    177.34563 
302612000    452.73877    378.02601    -701.2856    720.69555    74.712765 
302616000    526.81748    315.30916   -732.45241    747.52684    211.50832 
302620000    305.23364     149.3492   -761.70565    763.88514    155.88445 
302624000    508.21366    314.12893    -804.9885    792.89417    194.08473 
302628000    511.43228    352.29666   -799.74352    799.37945    159.13562 
302632000    363.54318    224.94574   -837.45102    836.11768    138.59744 
302636000    347.34169    284.80648   -854.71337    851.93418    62.535214 
302640000    201.72627    265.07657   -848.74128     869.0439     -63.3503 
302644000    328.82645    356.48209   -878.50465    889.30773   -27.655648 
302648000    416.84562    367.65106   -903.84299    904.28756    49.194558 
302652000    359.96628    413.40012   -902.50719    891.07927   -53.433841 
302656000    322.18369    619.90744   -912.90245     926.8628   -297.72376 
302660000    244.25507    227.98975   -929.28644    941.14386    16.265328 
302664000    319.56613    298.93481   -978.17946    979.24352    20.631319 
302668000    259.06718     336.1168   -1011.7296     985.7658   -77.049612 
302672000    416.67206    301.33401   -1009.2465    989.15132    115.33805 
302676000    398.23841    340.67083   -1011.7622    1011.6499    57.567577 
302680000    410.50311    261.10022     -1047.85    1044.2492    149.40289 
302684000    433.47952    279.04907   -1093.4396    1074.4386    154.43045 
302688000    463.04541    277.01073   -1111.4237    1113.7027    186.03468 
302692000     522.1499    328.19306   -1145.6626    1159.6901    193.95684 
302696000    409.31925    371.62811   -1151.1407    1157.2877    37.691147 
302700000    380.51767    490.99449   -1126.8202    1152.5932   -110.47682 
302704000    228.47145    277.96379   -1146.2399    1173.7626   -49.492336 
302708000    308.40927    398.34468   -1173.8392    1196.7901   -89.935404 
302712000    257.52024    281.44273   -1196.6481     1208.777   -23.922493 
302716000    280.19156    334.56619   -1224.7381    1213.9276   -54.374628 
302720000    201.01493     156.8339    -1238.229    1248.1443     44.18103 
302724000    386.02392    494.49387    -1248.619    1263.9212   -108.46995 
302728000    233.46304    350.81247    -1276.445    1286.4192   -117.34943 
302732000    320.87262    470.49225   -1275.3244    1306.4428   -149.61963 
302736000    338.40912    261.87415   -1309.9429    1337.7635    76.534977 
302740000    249.95208    430.50258   -1338.6374    1348.3607    -180.5505 
302744000    386.76086    283.90675   -1360.2525    1377.8596    102.85411 
302748000    321.23309    472.64163   -1358.1744    1375.7996   -151.40853 
302752000     304.6223    370.31389   -1392.0156    1393.5441   -65.691581 
302756000     404.7352    398.73405   -1420.1919    1410.6168    6.0011561 
302760000    568.97816    274.31725   -1416.5836    1434.0986    294.66091 
302764000    406.25741    276.23613   -1428.5604    1444.2125    130.02128 
302768000    550.70651    340.11159   -1460.2971    1445.8663    210.59493 
302772000    354.25747    451.63941   -1477.4498    1463.0197   -97.381936 
302776000    289.20195    173.45706    -1481.059    1480.4499    115.74489 
302780000    470.40882    611.32448   -1453.5068    1468.8448   -140.91566 
302784000    467.22132    410.67263   -1463.0802    1439.6176    56.548688 
302788000    258.00245    219.69342   -1456.7191    1448.6111    38.309038 
302792000    215.05265    215.10581   -1483.3298    1486.7044 -0.053152629 
302796000     364.9193     139.8524   -1511.4022    1501.9535     225.0669 
302800000    252.33181    413.45421   -1514.3702    1523.3574    -161.1224 
302804000    370.73009    265.51594   -1569.7301     1555.058    105.21415 
302808000    323.34162     163.8377   -1559.8734    1544.9177    159.50393 
302812000    367.36592    300.30694    -1548.403    1564.6755    67.058983 
302816000    541.83045    476.64727   -1572.8993    1595.0549    65.183179 
302820000    335.15191    214.49384   -1591.3195    1602.7112    120.65808 
302824000    404.33801    356.31785    -1626.393    1613.2579    48.020156 
302828000    238.01617    306.66586   -1620.0057    1631.9816   -68.649692 
302832000    556.00453    316.37325   -1656.6236    1646.8331    239.63128 
302836000    484.49699    438.63193   -1651.3034    1669.3069    45.865059 
302840000    511.77005    255.38444   -1688.9587    1674.9357     256.3856 
302844000    386.28665    399.66717   -1699.7416    1710.1875   -13.380516 
302848000    244.44192    306.94329   -1733.9435    1739.0024   -62.501363 
302852000    256.92385    412.55465   -1742.3844    1729.0324    -155.6308 
302856000    342.38575    450.09373   -1751.1999    1760.7283   -107.70797 
302860000    341.50868    402.94664   -1749.3451    1779.2668   -61.437963 
302864000    402.34972    358.79906   -1800.0295    1800.7277    43.550657 
302868000    328.72699    337.36082   -1817.1679     1814.533   -8.6338238 
302872000      281.183    173.30455   -1852.9129    1871.9027    107.87845 
302876000    236.42791    267.95069   -1879.7078    1888.6211   -31.522773 
302880000    450.58935    195.31177   -1887.8981    1901.5072    255.27758 
302884000    358.37258    362.16503   -1903.6975    1928.9635   -3.7924535 
302888000    397.05968    430.95421   -1933.5598    1938.6004   -33.894529 
302892000    408.93871    591.08634   -1977.1788    1967.6317   -182.14763 
302896000    225.63397    221.94604   -1987.8175    1997.2167    3.6879247 
302900000     281.1987    295.15745   -2023.4343    2040.6477   -13.958753 
302904000    323.36484    413.14587   -2061.8008     2087.236   -89.781032 
302908000    374.35949    266.39922   -2083.4518    2104.0612    107.96027 
302912000    428.58327    249.61627   -2111.4917    2119.5395    178.96701 
302916000    229.35286    358.50616    -2117.033     2138.774   -129.15329 
302920000     542.8803    387.68899   -2161.8654    2158.5832    155.19131 
302924000    378.81876    206.72928   -2200.5392    2194.0022    172.08948 
302928000    555.58674    358.80488   -2246.3257      2219.19    196.78186 
302932000    323.61816    166.22957   -2242.1663    2248.4756    157.38859 
302936000     457.6175    443.35123   -2251.6886    2260.8935    14.266271 
302940000    349.57006     210.6711   -2253.7681    2281.9713    138.89896 
302944000      507.071    254.49293   -2296.4105    2296.8347    252.57807 
302948000    180.53371     324.6838   -2332.7678    2332.3906   -144.15009 
302952000    584.10024    447.47578   -2366.0361    2353.3656    136.62445 
302956000    218.66551    284.22674   -2397.7082     2371.392   -65.561225 
302960000    419.95012    213.51838   -2415.4325    2414.5418    206.43174 
302964000    362.21575    425.21768    -2444.079    2440.3876    -63.00193 
302968000    300.70953    397.19128   -2450.8256    2454.7447   -96.481751 
302972000    296.07376    283.12679   -2472.7342    2458.9371    12.946967 
302976000    459.31095     318.4104   -2505.5652    2477.0805    140.90055 
302980000    614.57776     455.8934   -2531.2545    2515.4391    158.68436 
302984000     312.0732    302.90788   -2520.2159    2537.2819    9.1653207 
302988000    208.17211    206.95437   -2564.5066    2553.9798    1.2177366 
302992000    464.37774    238.74877   -2558.1104    2565.8318    225.62898 
302996000    390.54001    296.81438   -2603.8094    2587.1644    93.725624 
303000000    409.60626    378.92007   -2628.7279    2627.4505    30.686195 
303004000    298.69524    370.07495   -2632.1213    2639.2306   -71.379708 
303008000    377.61254    329.58014    -2652.367    2652.0339    48.032395 
303012000    319.19144     170.5119   -2672.0791    2682.6428    148.67954 
303016000    391.85217     157.2029   -2702.0483    2710.7952    234.64927 
303020000    373.77437     362.1223   -2673.6699    2682.1373    11.652075 
303024000    306.49736    304.11901   -2712.6951    2724.0907    2.3783508 
303028000    375.54948    254.09376   -2724.0851    2731.4528    121.45572 
303032000    382.02547    208.89567   -2740.5308     2755.541     173.1298 
303036000    376.87843     280.6484   -2767.9191     2793.406    96.230034 
303040000    171.02653    342.13985   -2785.6461    2795.1033   -171.11332 
303044000    210.84601    164.66226    -2773.301    2802.7517    46.183755 
303048000    224.50179    260.85254   -2775.7269    2793.6669   -36.350753 
303052000    287.88724    307.04621   -2836.7363    2829.7628   -19.158966 
303056000    314.58336     264.6911   -2831.5175    2833.1275    49.892259 
303060000    290.65366     285.9684   -2869.5703     2878.478    4.6852625 
303064000    479.04611     354.3277   -2912.3587    2905.2562    124.71841 
303068000    438.61851    562.60672   -2917.6748    2893.8325   -123.98822 
303072000    297.82003    352.76177   -2921.9936    2916.5608   -54.941741 
303076000    329.50126     282.6577   -2918.0388    2933.9749    46.843559 
303080000    345.67705    321.63245   -2938.5786    2946.6386    24.044602 
303084000    284.71033    222.18849   -2973.9578    2972.7827    62.521844 
303088000    268.24419    209.64412   -2981.9581    3005.2571     58.60007 
303092000    471.90648    257.69853    -3019.833    3010.6884    214.20795 
303096000    310.87638    220.55144   -3018.7344     3020.227    90.324948 
303100000    321.15378    262.53128   -3027.4898    3041.1824    58.622506 
303104000    366.33622    335.63892   -3047.8464    3070.8811    30.697307 
303108000    590.37372      391.857   -3078.4533    3058.6957    198.51672 
303112000    269.47353    259.15023   -3103.3445    3103.2531    10.323302 
303116000    569.86782    284.25996   -3131.2456    3122.0225    285.60786 
303120000    551.32638     223.5367   -3145.4948    3160.1695    327.78968 
303124000     347.8646    437.36631   -3153.8779     3173.713   -89.501704 
303128000     247.2121    298.22582   -3156.6831    3174.6862   -51.013722 
303132000    442.29246    291.86759   -3192.2396    3193.4078    150.42487 
303136000    504.99806    375.26706   -3251.9512    3225.8517      129.731 
303140000    427.52546    405.46733   -3270.7198    3284.2943    22.058134 
303144000    449.65336    350.14925   -3307.1567    3310.8548    99.504109 
303148000    480.27095    528.89144   -3354.2953    3347.8943   -48.620494 
303152000    347.82597     388.8215   -3378.5871    3390.3643   -40.995538 
303156000    295.17803    360.56513    -3410.296    3407.3303   -65.387107 
303160000    263.20343    305.54551   -3430.4795    3423.3994   -42.342087 
303164000    354.54226    313.18939   -3459.3647    3428.6544    41.352865 
303168000    293.07219    261.83247   -3454.3553    3477.7152    31.239715 
303172000    342.65643    310.28717   -3488.2329    3475.8445    32.369266 
303176000    368.55339    330.94389   -3487.0669    3501.9278      37.6095 
303180000    205.48948    242.62059   -3501.9825    3522.2703   -37.131106 
303184000    382.61019    412.69754   -3501.2387    3533.9076   -30.087356 
303188000     336.1268    378.63164   -3520.6129    3552.2226   -42.504847 
303192000    410.96806    378.60594    -3549.239    3567.2403    32.362122 
303196000    397.61402    300.00699   -3564.3392    3579.9737    97.607029 
303200000    354.98978     315.4036   -3566.8625    3579.3629    39.586176 
303204000    347.99413    288.69144   -3630.1387    3616.8862    59.302692 
303208000    300.95178    284.54591   -3635.5382    3631.1532    16.405864 
303212000    312.36919    307.82634   -3658.1888    3635.9012    4.5428475 
303216000    344.13029    246.82076   -3644.5689    3640.1692    97.309527 
303220000    489.29919    198.20209   -3680.5891    3679.3425    291.09711 
303224000    376.03608    327.89252   -3714.2987     3706.894    48.143552 
303228000    287.15396    391.02012   -3725.7021    3725.2172   -103.86617 
303232000     391.6966    286.98117   -3746.8396    3756.3863    104.71543 
303236000    351.29744    414.10044   -3732.6032     3738.468   -62.802998 
303240000    329.66566    225.56256   -3740.0571    3749.3115    104.10311 
303244000    449.22146    219.91144   -3774.3995    3771.2114    229.31001 
303248000    311.45823    319.93004   -3795.3852    3802.3418   -8.4718063 
303252000    469.64286    286.67592   -3811.6904    3806.7229    182.96694 
303256000    407.59658    374.67738   -3804.8198    3806.7905    32.919196 
303260000    219.57609    301.32899   -3822.7918    3836.8248   -81.752905 
303264000     379.4934    323.57329   -3889.1863    3885.5276    55.920108 
303268000    515.66412    305.97811   -3890.8448    3924.4678      209.686 
303272000    475.12464    314.09456   -3890.2767    3900.0822    161.03008 
303276000    621.02527    462.14992   -3925.2258    3922.2484    158.87535 
303280000    472.97248    252.86853   -3922.7256    3928.2021    220.10395 
303284000     361.4128    475.48499   -3938.9399    3932.0388   -114.07219 
303288000    223.71387    465.98655   -3936.2922    3932.3796   -242.27268 
303292000    414.27932    240.32407   -3965.1052    3952.9842    173.95525 
303296000    314.72333    338.05261   -3983.5481    3984.5229   -23.329286 
303300000    437.80669    341.06615   -4009.8267    4005.5032    96.740546 
303304000    372.60634    167.19105   -4057.0599    4054.8238    205.41529 
303308000    437.18846     379.9295   -4083.7803    4102.5423    57.258954 
303312000    365.40159    216.34052   -4108.4305    4126.8508    149.06106 
303316000    289.31623    464.20998   -4143.6262    4151.2751   -174.89376 
303320000     373.9414    327.84355   -4168.5912    4170.5953    46.097846 
303324000    445.08214     378.1171   -4220.2505     4236.489    66.965042 
303328000     416.1756    265.80632   -4272.0482    4273.2569    150.36929 
303332000    405.52091    345.64464   -4280.8563     4278.629    59.876276 
303336000    425.14861    380.61994   -4321.9833    4307.9013    44.528674 
303340000    418.09709    411.85378   -4339.0857    4337.6963    6.2433099 
303344000    372.90127    201.31162   -4349.4435    4355.3425    171.58965 
303348000    197.88955     567.3456    -4382.534    4386.7732   -369.45605 
303352000    345.06239    323.86732    -4406.039    4402.7402    21.195071 
303356000    393.25682    444.25325   -4415.5805    4406.7458   -50.996435 
303360000     428.7904     316.4551   -4391.9771    4422.4843     112.3353 
303364000    477.55461    318.65975   -4413.8857    4435.7602    158.89486 
303368000    226.00057    555.14502   -4441.7427    4439.8664   -329.14444 
303372000    409.48007    350.37559   -4472.3882    4473.6356    59.104474 
303376000    244.94881    330.21779   -4493.7434    4524.3063   -85.268973 
303380000    285.49203     420.1683   -4536.4388    4548.5045   -134.67627 
303384000    340.07445    529.08014   -4560.5748    4581.0409   -189.00569 
303388000    335.65901    240.84391   -4608.9339    4614.2353    94.815103 
303392000    409.63151    244.43283    -4657.591    4620.6129    165.19869 
303396000    439.93076    301.24119   -4668.3791    4684.1046    138.68957 
303400000    342.48507    206.06889   -4674.4716    4682.4565    136.41618 
303404000    358.54899    278.79481   -4690.7551    4704.0832    79.754182 
303408000    174.03014     234.4818   -4713.4709    4726.8437   -60.451655 
303412000    255.84676    254.35932   -4733.8034    4760.6427    1.4874476 
303416000    304.77318    293.15834   -4757.7592    4766.2629    11.614845 
303420000    408.71557    289.68049   -4783.3092    4789.0624    119.03507 
303424000    516.50282    157.79157    -4815.181    4814.9929    358.71125 
303428000    376.73819     309.3829     -4824.93    4839.5552    67.355293 
303432000    332.83861    217.52905   -4852.8352    4860.6682    115.30956 
303436000    281.37231    424.43717   -4872.4559    4885.8124   -143.06486 
303440000    235.33187    255.53539   -4885.9058    4922.7025   -20.203524 
303444000    410.03423    334.01519   -4895.4756     4921.873    76.019037 
303448000    256.93996    338.72282   -4929.0458    4945.0864   -81.782856 
303452000    323.96591    375.03028    -4970.162    4966.3632   -51.064376 
303456000    278.95147    404.81022   -4989.9645    4979.5263   -125.85875 
303460000    271.04365    382.77301   -5010.2048    5002.9322   -111.72936 
303464000    456.03659    330.32688   -5022.7627    5021.5705    125.70971 
303468000    181.91292    427.96379   -5030.5065    5031.6625   -246.05087 
303472000    451.31048    305.55678   -5036.7594    5055.3402     145.7537 
303476000    447.49963    394.16535    -5059.275    5073.7822    53.334278 
303480000    466.19439    496.34731   -5077.5795    5087.9981    -30.15292 
303484000     270.6619    126.99769   -5122.4076    5141.5722    143.66421 
303488000    247.86187    384.93278   -5132.1659     5166.624   -137.07091 
303492000    295.35728     316.4064   -5179.9169    5172.4506   -21.049119 
303496000    283.57631    467.48845   -5193.9721    5199.0941   -183.91213 
303500000    295.92844      403.393   -5238.9091    5232.8808   -107.46456 
303504000    336.87634    394.79433   -5252.1482    5257.9791   -57.917995 
303508000    344.95399    440.77711   -5284.9536    5273.7839   -95.823118 
303512000    565.19559    543.05518   -5286.2187    5290.9494    22.140406 
303516000    464.06708    498.95685   -5289.8647    5286.0892   -34.889769 
303520000     364.8142    325.69539   -5297.3867    5318.7022     39.11881 
303524000    275.96412     453.7546   -5306.4894    5299.1071   -177.79047 
303528000    405.84358    321.34073   -5305.1754    5308.3337    84.502845 
303532000    352.42811    398.72858   -5309.2332    5316.9138   -46.300472 
303536000    419.97535    159.29979   -5346.4578    5347.2294    260.67555 
303540000    242.51695    475.62152   -5355.8638    5358.3156   -233.10456 
303544000    322.30515    337.21671   -5372.6062    5366.5143   -14.911559 
303548000    361.67563    231.21396   -5391.6743    5391.3169    130.46167 
303552000    248.66259    407.98763    -5400.044    5391.5371   -159.32505 
303556000    266.62729    167.93359   -5452.4775    5435.4113    98.693704 
303560000    283.78788    219.56112   -5458.5533    5467.4531    64.226761 
303564000      228.562    245.43214   -5508.6076    5504.9463    -16.87014 
303568000    453.08084    433.84893   -5500.7885     5492.881    19.231919 
303572000    480.36837    302.36219   -5519.8267    5506.4155    178.00618 
303576000     327.0581    396.12514   -5524.9769    5540.2856   -69.067049 
303580000    470.19145    399.18907   -5542.2361    5562.2847     71.00238 
303584000    314.87298    326.25461   -5547.7474    5562.8879   -11.381628 
303588000    585.18336    285.78309   -5602.1824    5592.9263    299.40027 
303592000    339.17668    368.81301   -5610.9072    5598.0423    -29.63633 
303596000    402.56342    375.29914   -5610.8839    5588.9418    27.264278 
303600000    452.29534    397.49691   -5617.3413    5626.1325    54.798432 
303604000    460.43234    386.44598   -5632.9122    5631.2392    73.986359 
303608000    250.59305    262.57689    -5645.089    5652.5487   -11.983839 
303612000    541.29458    320.62487    -5686.647    5682.8084    220.66971 
303616000      483.605    189.75495    -5654.232    5697.1297    293.85006 
303620000    284.89941    346.00803    -5673.173    5700.1207   -61.108621 
303624000    462.00908     295.6612   -5701.0506    5717.3058    166.34788 
303628000    260.75484    357.77591    -5728.295    5728.3225   -97.021067 
303632000    262.99522    351.32974   -5740.5755    5757.7874   -88.334521 
303636000     301.0881    336.14518   -5765.4316    5790.7173   -35.057087 
303640000    331.26445    396.46824   -5780.8303    5790.6186   -65.203789 
303644000    286.65586    227.19806   -5780.0842    5798.0916    59.457797 
303648000     246.2647    425.49136   -5811.3771    5834.8438   -179.22666 
303652000    322.51699    412.20912   -5829.3435    5853.0917   -89.692131 
303656000    374.53485    354.78616   -5868.5311    5874.8471    19.748693 
303660000    440.91065     233.4547   -5886.1981    5887.8373    207.45595 
303664000    344.89319    244.77206   -5898.4327    5915.3731    100.12114 
303668000    403.43321    283.71729    -5943.806    5956.5695    119.71593 
303672000    591.24951    338.25392   -5959.5293    5975.9524    252.99558 
303676000    437.53502    460.28111   -5976.9446    5993.3989   -22.746081 
303680000    375.43191    406.36127   -6022.9217    6042.7977    -30.92936 
303684000    279.36546    357.03981   -6063.7598    6067.9572   -77.674348 
303688000    422.24953    274.54313   -6125.2707    6089.9917     147.7064 
303692000    241.78893    145.17238   -6128.1887    6151.0581    96.616542 
303696000     288.0904    183.76365   -6173.9468    6178.5218    104.32675 
303700000    463.54921    435.44208   -6174.3504    6201.3494    28.107133 
303704000    375.95517    417.03933   -6215.7529    6213.9992   -41.084158 
303708000    313.28028    301.58789   -6223.1112    6235.7922    11.692395 
303712000     360.8926    335.56592   -6240.7975    6245.3001    25.326674 
303716000    393.17338    384.96029   -6251.5431     6274.461    8.2130876 
303720000    426.45794    371.53318    -6277.075    6290.6632    54.924757 
303724000    483.14315    266.74373   -6282.9452     6291.592    216.39942 
303728000    362.20354     347.3209   -6299.7066    6302.8833    14.882641 
303732000    352.52004    200.49398   -6317.1129    6313.8598    152.02606 
303736000    213.61794    375.32123   -6331.7878    6346.7976   -161.70329 
303740000    347.70541    218.82677   -6336.5274    6365.4349    128.87864 
303744000     321.8234    323.58427   -6351.3935    6365.5194   -1.7608734 
303748000    339.45577    568.78844   -6360.3262    6361.4686   -229.33267 
303752000    414.43297    196.26471   -6373.1713    6390.6762    218.16826 
303756000    350.40091    372.06442   -6399.5188    6422.1657   -21.663517 
303760000    501.12019    312.42096   -6416.0675     6428.719    188.69923 
303764000     394.6389    180.84029   -6464.3941    6454.5594    213.79861 
303768000    579.26772    311.87259   -6479.1296    6480.8985    267.39513 
303772000    519.66047    269.65083   -6510.8129    6527.2589    250.00963 
303776000    520.18404    253.73338    -6549.962    6538.2711    266.45066 
303780000    388.41537    394.41927   -6585.1798     6602.573   -6.0039029 
303784000     336.9933    415.04989   -6603.3999    6629.4629   -78.056597 
303788000    351.78946    255.20284   -6642.7604     6661.684    96.586625 
303792000    267.10059    317.81509   -6647.3255    6672.6743   -50.714504 
303796000    178.28541    587.00813   -6668.4688    6688.5129   -408.72272 
303800000    449.83601    161.82551   -6700.4306    6726.3685     288.0105 
303804000    511.04242    253.15197   -6745.0993    6759.3129    257.89045 
303808000    398.22806    242.87987   -6790.3987     6792.446    155.34819 
303812000    197.44247    432.90391   -6788.5654    6803.6737   -235.46144 
303816000    302.35968    281.89984   -6828.6374    6828.3284    20.459844 
303820000     283.7908    377.26839   -6849.8335    6836.0122   -93.477596 
303824000    727.91608    467.98604   -6877.9085    6887.4089    259.93005 
303828000    434.28118    400.87026   -6901.2527    6909.6032     33.41092 
303832000    368.35341    400.71156   -6920.3068    6944.7321   -32.358154 
303836000    367.03587    330.14407   -6951.1513    6942.2535    36.891797 
303840000    433.00608     305.2968   -6992.6039    6983.9989    127.70927 
303844000    519.46407    527.08037   -6979.3506    6974.0951   -7.6162974 
303848000    669.69264    200.62379   -6997.9248    6980.8496    469.06885 
303852000    349.40531    226.24962   -7018.3524    7001.0071     123.1557 
303856000    198.56509    428.57257   -7020.9952     7018.076   -230.00747 
303860000     405.0285    406.80723    -7082.071     7078.155   -1.7787283 
303864000    195.14036    246.59814   -7091.1602    7114.3819   -51.457782 
303868000    285.63726    242.02945   -7130.0689    7129.5547    43.607811 
303872000    522.82168    347.49816   -7182.8764    7156.8305    175.32352 
303876000    338.22658    450.00006   -7189.8729    7174.1788   -111.77348 
303880000    392.53401    166.24261   -7213.4602    7236.9464     226.2914 
303884000    219.03527    197.53646   -7232.1583    7242.2173    21.498809 
303888000    344.24831    471.15882   -7266.5379    7254.6156   -126.91051 
303892000    388.45263    388.48574   -7306.1223    7301.8021  -0.03310895 
303896000    541.91807    398.37604   -7323.3704    7323.9335    143.54203 
303900000    467.44926    234.50041    -7345.433    7352.6659    232.94885 
303904000    330.00514    365.20932   -7369.0349    7354.9217   -35.204179 
303908000    425.74909    445.17983   -7377.9217    7376.4662   -19.430738 
303912000     395.0782    208.99576   -7405.5464    7414.0308    186.08244 
303916000     387.9545    403.33747   -7406.7196    7396.3549   -15.382967 
303920000    436.91338    310.80115   -7402.1943    7400.2743    126.11223 
303924000    192.20926    355.16396   -7403.2468    7410.2542    -162.9547 
303928000    307.15279    157.76272   -7430.1734    7432.5496    149.39007 
303932000    207.80008    270.39204   -7440.8788    7443.8128    -62.59196 
303936000    463.55837    376.50726   -7450.8675    7447.3562    87.051107 
303940000    303.24351    426.99698   -7468.9014    7479.5716   -123.75347 
303944000    486.18774    363.01379    -7500.737    7501.1311    123.17395 
303948000     357.4752    271.87156   -7492.4506    7533.3794    85.603641 
303952000    416.91774    258.87497   -7537.6371    7554.6207    158.04277 
303956000     462.5747    470.60816   -7538.8142    7546.6236   -8.0334599 
303960000    394.36098    327.15285   -7530.9901    7536.6606    67.208127 
303964000    146.87581    488.85249   -7544.5169    7555.8729   -341.97668 
303968000    465.95376    305.80452   -7580.5583    7584.4968    160.14924 
303972000    352.99467    345.59004   -7593.6823    7606.7568    7.4046244 
303976000    518.53011    239.07087   -7620.0735    7614.6702    279.45924 
303980000    481.21754    308.90056   -7609.8956    7599.7736    172.31698 
303984000    405.35322    498.26615   -7631.0724     7622.036    -92.91293 
303988000    231.94427    280.70713   -7641.4159    7650.4412   -48.762854 
303992000    450.14056    307.49035   -7645.7296    7664.2072     142.6502 
303996000    409.16573    258.05848    -7682.372    7682.3532    151.10724 
304000000    333.03676     314.8267   -7693.5395    7693.6234    18.210053 
304004000    335.80475     492.9246   -7733.9611    7706.4477   -157.11986 
304008000    276.01919    365.33844   -7738.0341    7735.7237   -89.319247 
304012000    352.30633    174.79283   -7757.4578    7770.3212    177.51349 
304016000    439.13548    291.33574   -7765.2106    7796.2224    147.79974 
304020000    242.49471    384.17004    -7776.367    7796.5135   -141.67532 
304024000    321.50466    450.62892   -7786.7585     7786.666   -129.12427 
304028000       364.59    204.64799    -7785.472    7805.9909    159.94201 
304032000    299.38069    485.66853   -7837.1548    7839.0703   -186.28784 
304036000    278.00952    320.63131   -7860.7824    7866.7375   -42.621781 
304040000    574.97093    345.15077   -7888.6329    7895.3603    229.82016 
304044000    723.54611    404.05651   -7899.0398    7902.4249     319.4896 
304048000    292.31893    266.72242    -7928.237    7938.5124    25.596517 
304052000    256.26666    313.43276   -7965.4377    7973.5517   -57.166097 
304056000    352.16238    227.02805    -7982.175    7989.7876    125.13433 
304060000    237.12802    257.22209   -7999.4841    8022.2745    -20.09407 
304064000    333.26894    500.48681   -8027.4848     8026.785   -167.21787 
304068000    287.14238    267.37765   -8068.8182     8079.108    19.764738 
304072000    227.79787    337.85695   -8088.7661    8089.7178   -110.05907 
304076000    308.28618    178.10253   -8110.4355    8133.1763    130.18365 
304080000    430.77411    310.16001   -8152.9968    8156.8739    120.61409 
304084000    291.09639    316.78719   -8181.1606    8169.6993   -25.690796 
304088000    211.70003     392.8246   -8193.1174    8195.9727   -181.12457 
304092000    373.32456    208.28264   -8217.7767    8219.4919    165.04192 
304096000    458.72151    333.17991   -8209.7186    8232.6772     125.5416 
304100000     526.0562    590.02669   -8226.5269    8215.0343   -63.970492 
Loop time of 112.275 on 4 procs for 1600000 steps with 196 atoms

Performance: 1539.074 ns/day, 0.016 hours/ns, 14250.688 timesteps/s
100.0% CPU use with 4 MPI tasks x no OpenMP threads

MPI task timing breakdown:
Section |  min time  |  avg time  |  max time  |%varavg| %total
---------------------------------------------------------------
Pair    | 21.007     | 24.448     | 28.335     |  56.3 | 21.78
Bond    | 44.16      | 45.383     | 48.03      |  22.9 | 40.42
Neigh   | 0.43597    | 0.44207    | 0.44787    |   0.7 |  0.39
Comm    | 15.246     | 18.765     | 21.189     |  53.9 | 16.71
Output  | 0.0058026  | 0.0063607  | 0.0076287  |   0.9 |  0.01
Modify  | 19.873     | 20.378     | 20.919     |  10.6 | 18.15
Other   |            | 2.852      |            |       |  2.54

Nlocal:    49 ave 54 max 44 min
Histogram: 1 0 1 0 0 0 0 0 1 1
Nghost:    147 ave 152 max 142 min
Histogram: 1 0 1 0 0 0 0 0 1 1
Neighs:    976.25 ave 1071 max 878 min
Histogram: 1 0 0 1 0 0 0 1 0 1

Total # of neighbors = 3905
Ave neighs/atom = 19.9235
Ave special neighs/atom = 5.87755
Neighbor list builds = 5241
Dangerous builds = 0
unfix 1


# PRODUCTION

fix             1 all nve
fix             hot all langevin ${TThi} ${TThi}  50.0 52804  tally yes
fix             hot all langevin 320 ${TThi}  50.0 52804  tally yes
fix             hot all langevin 320 320  50.0 52804  tally yes
fix             cold all langevin ${TTlo} ${TTlo} 50.0 297859 tally yes
fix             cold all langevin 280 ${TTlo} 50.0 297859 tally yes
fix             cold all langevin 280 280 50.0 297859 tally yes
fix_modify      hot temp Thot
fix_modify      cold temp Tcold


variable        tdiff equal c_Thot-c_Tcold
thermo          4000

dump gigo all atom 40000 dump.cords_xyz.dat
dump_modify gigo scale no
dump vfgigo all custom 800 dump.velo.dat id vx vy vz fx fy fz

# thermal conductivity calculation
# # reset langevin thermostats to zero energy accumulation
#
compute         ke all ke/atom
variable        temp atom c_ke/1.5/0.0019872

fix             ave all ave/time 100 40 4000 v_tdiff ave running
thermo_style    custom step temp c_Thot c_Tcold f_hot f_cold v_tdiff f_ave

#compute         layers all chunk/atom bin/1d z lower 0.05 units reduced
compute         layers all chunk/atom bin/1d z lower ${dz} units box
compute         layers all chunk/atom bin/1d z lower 4.1310649555631 units box
fix             2 all ave/chunk  100 40 4000 layers v_temp file profile.langevin

#dump mydump2 all xyz 40000 prod-coord.xyz
#dump_modify mydump2 element C S S

run             32000000
Per MPI rank memory allocation (min/avg/max) = 11.52 | 11.52 | 11.52 Mbytes
Step Temp c_Thot c_Tcold f_hot f_cold v_tdiff f_ave 
304100000    292.02865     526.0562    590.02669           -0           -0   -63.970492            0 
304104000    278.12634    491.60556    335.28046   -6.0623507    27.822713    156.32511    3.7141967 
304108000    264.51059    635.47407    366.89923   -35.153187    51.906502    268.57484    27.524517 
304112000       306.07    293.26619    308.19211   -52.682256    48.457895   -14.925927    30.810068 
304116000    294.50783    317.08876    396.56544   -86.771435    106.65621    -79.47668    31.739862 
304120000    292.87132    330.08933    504.70724     -109.096    122.19929   -174.61791    23.468463 
304124000    320.61532    408.99254    286.10781   -147.32101     145.0909    122.88473    24.973426 
304128000    307.35015     279.1787    317.86728    -170.9291     173.1712   -38.688578    23.708473 
304132000    277.83251    442.95209    233.76965    -179.4691    209.87504    209.18244     29.47707 
304136000    286.49113    345.09563    228.16788   -203.72774    225.48503    116.92775    31.775447 
304140000    277.18754    311.75035    488.23608   -198.12758    219.46013   -176.48574    27.258766 
304144000    281.03016    418.70711    230.56778   -241.65349    256.53584    188.13932     29.57882 
304148000    314.11818    292.72883    354.84482    -248.0136    257.98989   -62.115998    28.262178 
304152000    278.17219    338.80172    261.87673   -288.48922     302.1359    76.924991    29.198205 
304156000     310.2659    383.25296    437.31953   -300.58558    299.17159   -54.066568    30.830516 
304160000    315.31958    540.47024    299.43913   -343.91786    328.14911    241.03111    31.940239 
304164000    301.11686    224.60566    243.99735    -349.9334    344.18835   -19.391688    31.463573 
304168000    286.10034    440.93305    352.96113   -377.74885     386.6745    87.971919      31.2051 
304172000     277.1636    203.96626    307.90397   -402.43518    413.40757   -103.93772    31.147372 
304176000    304.17584    377.64873    351.27383   -415.18328    425.46099    26.374893    31.373407 
304180000    293.60811     373.5627    315.11559   -420.86619    424.79368    58.447102    29.883277 
304184000    312.59067    405.10597    435.26621   -446.00502    444.39822   -30.160235    28.266706 
304188000    347.55061    436.25643    378.41779   -489.42617    473.33155     57.83864    29.044918 
304192000    290.13718    323.23161    273.41445   -503.95874     505.9736    49.817158    29.311898 
304196000    258.37481    175.16429    413.75621   -516.69436    544.91056   -238.59192    30.141228 
304200000    290.80285    360.63626    206.73236   -519.39174    549.41286     153.9039    29.462751 
304204000    295.74629    494.08699    260.51249   -572.95498    577.80321    233.57449    30.351727 
304208000    299.89047    215.35101    269.48679   -631.05844    621.10961   -54.135772    30.666005 
304212000    283.16321    389.08659    276.12126   -660.18763    674.71255    112.96533    31.079876 
304216000    292.99118    475.19244    463.50221   -674.49463    688.59798    11.690235     30.74103 
304220000    262.00325    417.19184    189.14552   -692.08469    715.76078    228.04632    32.354386 
304224000    283.11684    435.90789     226.4233   -702.22848    732.23624    209.48459    32.715808 
304228000    284.67947    383.41151    185.96009   -708.06213    735.76896    197.45142    32.518065 
304232000     283.4852     390.9873    273.67313   -720.36494     733.9703    117.31417    32.646466 
304236000    277.11082    373.77283    372.51527   -720.88702    741.40866    1.2575636    32.662452 
304240000    251.52279    382.13627     282.7288   -738.54829    752.52361    99.407473    33.537773 
304244000    301.63452    407.44704    313.79569    -767.7203    783.00313    93.651346    33.190164 
304248000    279.08334    208.59366    315.46223   -805.60383    800.22624   -106.86857    32.193246 
304252000    275.17156    524.79351    326.88067   -829.89237    854.12282    197.91284    32.326737 
304256000    265.03574    395.41938    183.43864   -841.92591     875.7368    211.98074    31.849207 
304260000    278.28589    388.67367    308.52105   -870.23211    910.21547    80.152613    33.086273 
304264000    262.33065    216.65234    320.17999   -901.98038    929.15123   -103.52766    32.556827 
304268000    297.98872    241.03126    224.03561   -920.97685    942.73775    16.995647    32.845084 
304272000    270.18864     291.2816    154.14067   -940.35262    958.99417    137.14093    33.131691 
304276000    289.63464    107.62641     414.7431   -973.52061    977.63056   -307.11669    33.254258 
304280000    275.59341    363.62781     327.4433    -1000.602    1023.7052    36.184511    33.723664 
304284000    286.02914    517.24997    286.83769   -1024.0626    1047.5948    230.41228    34.513118 
304288000     294.7764    465.12285    290.22737   -1032.3827    1038.5674    174.89548    34.539446 
304292000    304.40727     319.1272    331.55574   -1042.2107     1058.905   -12.428542    34.239515 
304296000    262.67623    424.01736    270.32134   -1057.9876    1108.7974    153.69602    34.139239 
304300000    285.07513    315.34403    316.40069   -1102.8963    1114.6333   -1.0566547    34.070193 
304304000    273.21937     269.8046    168.98811   -1116.3167    1137.9784    100.81649    34.236802 
304308000    266.76093    210.03589    227.97377   -1138.2508    1178.7943   -17.937878    33.922275 
304312000    312.76292    395.83188    362.06249   -1198.2977    1207.9899    33.769393    33.427469 
304316000    283.92252    322.08779    296.23468   -1245.9776    1257.3508     25.85311    33.726652 
304320000    290.02469    278.75971    305.12612    -1269.279    1272.0178   -26.366405    33.261583 
304324000    272.30737    324.39753    688.97814   -1262.2222    1300.6571    -364.5806    32.963948 
304328000    271.32271    469.23018    286.42989   -1296.9557    1312.4251    182.80029    32.921999 
304332000    290.31465    371.50177    244.32432   -1293.0954    1328.4563    127.17744    32.451424 
304336000    275.79473    380.95895    331.26499   -1328.7756    1331.3704     49.69396    32.284534 
304340000    276.26864    357.40887    318.16084   -1356.1074    1373.7856    39.248032    32.426655 
304344000     299.4251    470.97387    309.45041   -1380.2766    1389.0258    161.52346    32.832469 
304348000    298.64797    433.10334    284.52566   -1400.1141    1404.3309    148.57768    32.554887 
304352000    315.17579    390.27008    320.44833   -1408.1125    1428.3555     69.82175    32.665401 
304356000    294.39011    516.58008    427.92658    -1444.189    1476.7391    88.653497    32.915792 
304360000    285.99645    464.04948      255.043   -1462.2834    1483.7073    209.00649    32.900245 
304364000    252.82855    491.49655    230.35729   -1461.5617    1491.0517    261.13926    33.064335 
304368000    280.71883    404.21109    321.15083   -1498.3588    1512.7786    83.060265    33.118244 
304372000    275.23589    345.40858    529.94335   -1509.2452    1533.8443   -184.53477     33.23272 
304376000    273.65614    214.98633    252.61102   -1536.6444    1566.3284   -37.624687    32.605474 
304380000    281.32743    447.30375    337.14776   -1573.4175    1591.4721      110.156    32.779789 
304384000    271.79531    404.29879    427.34272   -1618.7874    1625.6939   -23.043924    32.995936 
304388000    260.57849     239.8583    220.48248    -1638.303    1664.9321    19.375817    33.241561 
304392000    303.20153    581.45492    204.70294   -1662.9966    1671.5453    376.75198    33.503223 
304396000    310.20947    391.34431    432.44712   -1677.3704    1691.2981   -41.102812    34.075776 
304400000     314.4695    418.23911    291.20046   -1700.0533    1709.5831    127.03865    34.247871 
304404000    287.71869    288.09075    370.51552   -1724.5432    1736.5577   -82.424764    33.782328 
304408000    271.26172    401.14585    261.53075   -1728.4167    1743.9122     139.6151    34.159469 
304412000    295.55179    295.29462    387.39721   -1757.1646    1768.3773   -92.102597    34.677229 
304416000    281.35323    298.81842    215.93954   -1777.3099    1802.1353    82.878875    34.851285 
304420000     262.2302    520.56286    261.50071   -1783.3053    1820.7569    259.06215    34.874833 
304424000    248.18866    369.22706    402.18343   -1797.8926    1830.1741   -32.956368    34.838251 
304428000    303.21845    351.44593    406.84944   -1835.0566    1846.6219   -55.403518     34.89767 
304432000    252.03217    214.65744    287.05182   -1838.6851    1862.1718   -72.394379    34.973741 
304436000    274.26419    379.05887    184.78254   -1844.4698    1878.5681    194.27633    34.569038 
304440000    261.85899    419.76953    306.03595   -1852.0899    1888.5098    113.73358    34.969265 
304444000    261.93907    317.00247     283.3044   -1856.8676    1890.7747    33.698072    34.416241 
304448000    284.78772      356.985    394.86919   -1867.8663     1886.439   -37.884189    34.047594 
304452000    253.33221    394.48869    139.96182   -1874.3095    1908.4742    254.52687    33.930467 
304456000    285.79183    258.07304    368.60107   -1938.4087     1957.956   -110.52802    34.011563 
304460000    285.96121    388.00673    294.07542   -1976.8818     1988.905    93.931307     34.49518 
304464000    258.58814    390.87064    352.54124   -2004.6514    2035.0568    38.329403    34.899644 
304468000    284.92106    378.33241     296.5887   -2032.4205    2045.0999    81.743711    34.901201 
304472000    272.09926    289.80123    340.83181   -2029.7872    2053.7357   -51.030577    35.025449 
304476000    291.99361    563.49214    267.97448   -2041.7752    2056.6451    295.51767    35.403092 
304480000    317.91334    487.23179    779.06075   -2086.4628    2058.9242   -291.82896    35.147982 
304484000     275.9491    248.33254    340.07381   -2102.2892    2110.5225   -91.741278    35.362568 
304488000    268.03206    223.99975    178.42688   -2120.0372    2133.0733    45.572874    35.153388 
304492000     270.1741    313.93606     369.5217   -2132.1609    2155.3659   -55.585636    35.281476 
304496000     323.4712    535.78865    229.41505   -2167.0112    2163.8083     306.3736    35.323101 
304500000    289.04231    177.81536    531.90094   -2171.9361    2188.8522   -354.08558    35.420774 
304504000    306.11631    562.08245    363.41391   -2208.7529    2193.4922    198.66854    35.960509 
304508000    309.19803    551.27857    461.44597   -2231.9509    2235.0826    89.832601    36.151517 
304512000     274.1084    387.27907    378.32157   -2258.6517    2250.1244    8.9575018    36.135701 
304516000    329.41864    403.45789    453.72202   -2281.3414    2288.5235   -50.264137    36.110526 
304520000    296.52885     348.4182     367.9185   -2308.6429     2314.874   -19.500297    36.306495 
304524000    295.88703    501.38811     211.7342   -2329.1671    2344.1719    289.65391    36.455964 
304528000     263.7672    262.76333    219.13934   -2342.2723    2395.0718    43.623995    36.354783 
304532000    271.83122    469.44459    317.28546   -2383.6358    2412.7398    152.15913    36.405799 
304536000    258.57358     293.1244    146.20918   -2403.1702    2438.3714    146.91522    36.186759 
304540000    276.40394    501.64664    301.51567   -2437.9315    2466.0597    200.13097    36.474914 
304544000    277.55486    428.53801     239.1743   -2455.7124    2483.7441    189.36371    36.441472 
304548000    294.84196    419.95042    475.16584   -2496.2581    2506.9256   -55.215419    36.657032 
304552000    296.70551    198.06424    428.11325   -2541.2563    2544.6632   -230.04901    36.810354 
304556000    280.82779    453.75193    243.37718   -2573.3861    2577.2666    210.37475    37.413759 
304560000    256.73705    409.33732    402.62383   -2598.4033    2628.3201    6.7134912    37.408107 
304564000    289.42137    107.32112    334.69316   -2620.2553    2634.4038   -227.37204    37.409123 
304568000    283.23313    380.07398    315.17637   -2636.2198    2634.9024    64.897618    37.243047 
304572000    279.68762    421.50294    270.57782   -2661.8074      2684.19    150.92512    37.146565 
304576000    278.94553    260.87646    287.13903   -2698.9967    2707.9515   -26.262569     37.33255 
304580000    280.76588    262.31361    422.25452   -2722.7884    2752.1608   -159.94092    37.057383 
304584000    259.98107    306.77225    491.37843   -2752.8514    2788.0487   -184.60618    37.400697 
304588000    277.61423    345.90448    370.90588   -2780.4284    2795.7125   -25.001397     37.40561 
304592000    297.09802    348.07874    502.93206   -2788.0734    2789.7545   -154.85332    37.596745 
304596000    271.77545    200.96598     306.3095   -2815.5209    2824.1897   -105.34352    37.416072 
304600000    277.76704    306.96476    173.61716   -2807.7335    2833.2801     133.3476    37.494305 
304604000    277.94691     385.4236    310.10116   -2811.9378    2832.2658    75.322442    37.406076 
304608000    324.82743    452.98359    343.01713   -2864.5397    2836.6389    109.96646    37.453211 
304612000    295.19033    489.29899    286.16196   -2829.5947    2862.7968    203.13704    37.219637 
304616000      265.028    536.52641    270.12148   -2854.5033    2880.0372    266.40493    36.900388 
304620000    282.52504    472.97483    622.67132   -2891.0992    2904.0579   -149.69649    36.829964 
304624000    280.13695    179.03898    200.81182   -2886.7679    2916.6781    -21.77284     36.82059 
304628000    254.82154    315.89617     244.1859   -2898.4627     2939.884    71.710271    36.544983 
304632000    264.84943    475.10734    287.58061   -2916.4355    2959.8102    187.52674     36.52367 
304636000    286.75055    461.83025    441.18673   -2961.0827    2977.5509    20.643522    36.588987 
304640000    267.66738    214.19525    328.35478   -2972.5861    3005.5997   -114.15953     36.55084 
304644000    278.88712    389.53995    134.25193    -2997.287    3015.6052    255.28802     36.75231 
304648000    289.18672    387.07136    256.79429   -3030.3696    3039.9691    130.27706    36.892842 
304652000     271.8472    293.73301    317.69549   -3040.7506    3051.1302   -23.962481    36.567498 
304656000    293.36821    204.51909    359.69039   -3065.3899    3090.3097    -155.1713    36.388645 
304660000    260.50805    202.57984    234.51849   -3070.5045    3106.8165   -31.938655    36.271389 
304664000    256.30247    660.54649    261.32699   -3088.4182    3119.0086     399.2195    36.181298 
304668000    287.11633    498.17546    253.13279   -3107.4883     3117.345    245.04266    36.205063 
304672000    267.60039    421.13591    248.25149    -3107.095     3144.951    172.88442    36.583251 
304676000    251.38888    349.02017    161.63877   -3141.5834    3187.9484    187.38141    36.769241 
304680000    287.11742    276.70789    377.06288   -3173.6999    3184.3651   -100.35499    36.758066 
304684000    276.26983    558.17921    522.80965   -3195.7405    3218.3386     35.36956     36.72872 
304688000    261.27256    273.52009    257.24878   -3201.6052    3240.6956    16.271306    36.618904 
304692000    267.97864    165.07052     517.7419   -3225.6906    3254.0474   -352.67138    36.309089 
304696000    270.78733    435.91002    197.19853   -3260.9177    3274.9139    238.71149    36.123015 
304700000    254.37513    242.24976    294.44139   -3289.2546    3318.7109   -52.191636    35.754915 
304704000    281.74893    280.44996    268.65472    -3320.574    3341.3343    11.795234    35.752897 
304708000    288.11749    166.02091    322.28924   -3340.3349    3371.3574   -156.26833    35.510742 
304712000    273.01988    377.39973    405.15471   -3348.9917    3374.8213   -27.754981    35.610536 
304716000    298.43025    448.46289    339.28084   -3407.7464    3407.5929    109.18205    35.812769 
304720000    275.92039     311.9494    312.71425   -3398.2181    3419.1178  -0.76484919    35.970566 
304724000     272.3287    309.43436    503.85919   -3387.4832    3420.9765   -194.42483    35.783314 
304728000    282.44899    276.55907    285.33818   -3419.4307    3429.1389   -8.7791023    35.691759 
304732000    269.80357      335.348    272.74257   -3423.2009     3456.501    62.605428    35.581467 
304736000    304.97051    295.96036      353.688   -3437.9317    3452.6022   -57.727634    35.410322 
304740000    285.14442    377.39181    223.33735   -3472.2327    3494.6665    154.05446    35.430961 
304744000    266.59997    229.72647    283.57058   -3467.6517    3484.0783   -53.844111    35.147382 
304748000    282.28078    326.57236    271.91554   -3490.2968    3512.4055    54.656826    35.247069 
304752000    279.80576    418.44404    476.72853   -3517.7231    3551.1594   -58.284488    34.973532 
304756000     283.2557    475.56462    522.89181   -3560.4599    3572.6719   -47.327194    34.793472 
304760000    265.17519    298.23851    329.11273   -3578.9037    3610.3033   -30.874224    34.738171 
304764000    282.45838    328.58007    343.85212   -3626.0596    3652.7517   -15.272048    34.581065 
304768000    302.11867    525.21683    359.60444   -3662.6543    3655.3476    165.61239    34.578729 
304772000    318.66319    426.77334    433.89283   -3673.6915    3677.1595   -7.1194942     34.52255 
304776000    305.74363    370.37893    588.72923   -3698.4118    3678.0405    -218.3503    34.681657 
304780000    271.04405     347.0627     244.5192   -3715.6315    3729.8368     102.5435    34.578401 
304784000    269.97816    502.08903    203.89097   -3745.8766    3770.0067    298.19806    34.617215 
304788000    276.95996    183.95052    519.64086   -3776.6131    3797.7202   -335.69033    34.591663 
304792000    271.82004    157.12826    348.96409   -3820.6084    3850.9445   -191.83584    34.552401 
304796000     272.3532      209.036    375.29992   -3853.3381    3872.5139   -166.26392    34.276519 
304800000    277.41049    304.76726    271.41486   -3890.1117    3917.9001      33.3524    34.340201 
304804000    315.41225    326.58191    346.64879   -3928.5354    3933.6454   -20.066879    34.199259 
304808000    279.74766    451.87931    315.91304   -3950.5623    3962.6444    135.96628    34.391952 
304812000     284.2111    355.51005     218.1075   -3959.1642    3972.9388    137.40255    34.317689 
304816000    292.95225    226.52605    288.46306   -3983.3582    3983.0894   -61.937016    34.424026 
304820000    318.76083    273.08258      235.078   -4014.4323    4012.6065    38.004579    34.213967 
304824000    266.86027    503.79056    205.28497   -4022.6546      4045.36    298.50558    33.994268 
304828000    321.21256    450.27362    354.88844   -4052.2512    4057.0912    95.385177    33.965075 
304832000    301.59004    279.82662    199.85807   -4080.7982    4097.7435    79.968547    34.126499 
304836000    251.74337    327.05587     363.9193   -4060.2443    4109.7121   -36.863435    33.939882 
304840000    302.11618    226.91836    608.85354   -4098.4285    4096.1832   -381.93518     34.03602 
304844000    284.52163    368.34818     373.2397   -4124.6507    4131.0579   -4.8915289    34.065998 
304848000     264.8454    374.58272    250.07963    -4123.464    4168.3119    124.50309    34.182586 
304852000     301.3881    251.33812    285.24104   -4142.9565     4155.228   -33.902922    34.305837 
304856000    286.83493    299.12447    188.78128   -4214.1668    4215.7189    110.34318    34.378046 
304860000    328.28639    578.38935    392.11988   -4263.1126    4247.9912    186.26947    34.391631 
304864000    307.72165    333.72566    292.94694   -4296.8024     4286.906    40.778727    34.325967 
304868000    281.05194    347.41412    272.01704   -4318.3897    4334.5544    75.397087    34.240353 
304872000    286.83591    483.85099    160.36334    -4344.713    4363.9391    323.48765    34.255263 
304876000    283.06708    320.97451    312.71484   -4366.4714    4379.9586    8.2596696    34.115058 
304880000    304.09019    421.97518    338.55171   -4398.3268    4401.2985    83.423468    34.118649 
304884000    328.16154    448.62157    340.71001   -4436.2767    4421.6417    107.91156    34.027423 
304888000    290.47704    372.46171    256.97872   -4443.3682    4456.0002      115.483    33.855308 
304892000    278.49303    459.56401    435.49861   -4447.4469    4467.6769    24.065399    33.921929 
304896000    275.81585    362.35744    367.64153    -4492.843    4511.8971   -5.2840885    33.896393 
304900000    295.15779    315.39318    380.40235   -4500.1954    4527.7034   -65.009166    34.024593 
304904000    321.67761    431.29472    345.91284   -4521.6365    4528.9732    85.381889    34.146098 
304908000    285.20045     398.3772    237.44027   -4525.9192    4552.2763    160.93693    34.376006 
304912000    285.27498    268.26302    277.28285   -4552.1258    4576.7695   -9.0198358    34.556141 
304916000    281.29112    303.57596    214.30325   -4569.2683    4589.0511    89.272709     34.68469 
304920000    275.13609    296.08332    218.16057   -4575.4666     4607.532    77.922753    34.715495 
304924000    290.88881    345.20519    427.77621   -4599.0958    4633.2163   -82.571024    34.722903 
304928000    310.55033    246.17944    324.21822   -4644.2464    4645.3255   -78.038788    34.859581 
304932000     289.4345    241.26072    281.86435   -4667.4479    4677.6289   -40.603636    34.821116 
304936000    304.58774    256.63563    533.56051   -4699.0581      4692.58   -276.92488    34.813081 
304940000     294.8389    475.82979    316.36545   -4737.8877    4746.0555    159.46434    34.701614 
304944000    266.46076    270.60934    267.64878   -4782.9271     4801.341    2.9605525    34.600441 
304948000    288.82445    479.12526    369.65412   -4803.2125    4826.3043    109.47114    34.801879 
304952000     264.7533    461.59606    214.28101   -4820.1194    4866.6057    247.31505    34.884438 
304956000    298.84031    295.42734    403.51143   -4869.4474    4882.8258    -108.0841    34.861709 
304960000    273.45801    349.39476    273.20712   -4881.9008    4908.2015    76.187632    34.819786 
304964000    300.55551    237.34318    456.43943   -4925.0345    4925.6302   -219.09626    34.603675 
304968000    278.30882    311.62105     142.5395   -4948.5758    4964.3431    169.08156    34.786935 
304972000    300.47079    399.20203    382.11254   -4948.0514    4950.0125    17.089489    34.846217 
304976000    301.41187     399.5907    311.19888    -4954.512    4967.4775    88.391827    34.931666 
304980000    295.88952    472.53032    424.51709   -4977.3905    5001.1428    48.013225    34.870216 
304984000    288.33686    340.97933    249.25641   -5013.8087    5027.3445    91.722926    34.878719 
304988000    297.27731    274.26993    416.88636   -5046.5964    5051.8957   -142.61643    34.915859 
304992000    277.90607    246.49278    281.41102   -5051.3435    5091.5148   -34.918231    34.928514 
304996000     281.2299    336.22146    345.86436   -5075.8791    5103.2551   -9.6429044    34.835753 
305000000    296.34222    295.78536    291.37728   -5116.0463     5120.899    4.4080719    34.879583 
305004000    271.14304    326.58096    425.28603   -5119.4112    5141.0012   -98.705078    35.000799 
305008000    275.69509     573.3223     361.2798    -5149.756    5177.3561     212.0425    35.049019 
305012000    288.17585    480.33297    203.26256   -5178.7452     5199.437    277.07041    35.212195 
305016000    271.25321    383.55525     260.2754   -5207.8766    5240.2087    123.27985    35.179587 
305020000    271.93817    234.30789    174.84675   -5208.6587    5237.4794    59.461133    35.095749 
305024000    301.59203    317.95767    349.81544   -5234.3913    5252.6416   -31.857775    35.001311 
305028000    281.29005    399.75963    186.37451   -5242.3826    5252.5415    213.38512    34.955558 
305032000     285.4344    605.91441    404.36725   -5284.0943    5308.2173    201.54715    35.029286 
305036000    289.75122    273.12363    355.40496   -5347.4698    5337.9536   -82.281325      34.8087 
305040000     292.9857    483.63133    395.70223   -5342.1621     5363.435    87.929092    34.818931 
305044000    286.18269    204.87124    425.38281   -5363.3248      5386.97   -220.51157    34.871893 
305048000    281.70588    321.32691    390.00504   -5404.5381    5416.6701   -68.678133     35.12071 
305052000    296.50911    362.06526     248.7361   -5396.2473    5409.6334    113.32916    35.158504 
305056000     284.5365    333.76997    355.79234   -5447.4925     5469.462   -22.022367    35.087793 
305060000    269.38107    360.68391    404.74134   -5451.8984    5483.2213   -44.057424    35.117714 
305064000    278.02248    282.34716    407.87128   -5466.1717    5485.0057   -125.52411     35.06812 
305068000    301.93234    350.99235    357.65641   -5514.8958    5523.4088   -6.6640628    35.025118 
305072000    276.54525    339.76593     387.9529   -5538.4245    5533.4453   -48.186974    35.208307 
305076000    304.99733    375.55874    466.71466   -5552.2248    5543.9896   -91.155924    35.197044 
305080000    300.23993    258.16184     212.5165   -5528.7875    5546.1512     45.64534    35.120034 
305084000    305.12238     464.6204    279.27947   -5567.2883    5570.9742    185.34093    35.211583 
305088000    315.75191    284.33879    399.00966   -5568.6968    5574.5043   -114.67086    35.130432 
305092000    278.12237    342.76886    423.99065   -5576.9632    5584.1727   -81.221792    35.117483 
305096000    290.70217    431.76479    252.28771     -5592.12    5605.0152    179.47707    35.177587 
305100000    288.46384    217.88478    479.54224   -5594.3253    5624.2638   -261.65746    35.204486 
305104000    283.23078    202.25905    390.96954   -5646.3358    5647.0858   -188.71049    35.339203 
305108000    300.77592    411.38757    183.11802   -5662.1571    5669.7882    228.26955    35.469236 
305112000     303.6396    256.20457    345.89424   -5682.0725    5671.1234   -89.689662    35.522981 
305116000    300.74724    374.41966    301.07677   -5681.0082    5686.3002    73.342897    35.531683 
305120000    287.17814    281.17722    260.94895   -5690.3481    5717.5277    20.228278     35.46776 
305124000    289.19353    483.39378     483.7338   -5734.8713     5744.758  -0.34002472    35.397969 
305128000    274.83897     376.3165    299.89121   -5768.5937    5800.9166    76.425295    35.419074 
305132000    280.99961    303.50057    183.39176   -5805.0286    5829.1543    120.10882    35.502137 
305136000    273.76276    466.84176    402.75305   -5838.0051    5850.2923    64.088712    35.445119 
305140000    289.09835    369.34856    138.13255   -5853.4514    5874.1921    231.21601    35.581778 
305144000    282.69992    355.46505    463.37794   -5880.6899    5897.0203    -107.9129    35.682312 
305148000    271.02424    261.50897     262.4025   -5899.5954    5942.1827  -0.89352865    35.740507 
305152000    286.97403     312.0543    288.91189   -5911.8573    5945.0876    23.142408    35.645487 
305156000    268.61402    302.06993    203.49043   -5943.4926    5955.1148    98.579502    35.650992 
305160000    291.27607    373.69891    346.45673   -5948.5187    5966.2641    27.242187    35.685807 
305164000    273.39691    366.01022    232.19016   -5951.5479    5982.2568    133.82006    35.658083 
305168000    283.64803    591.32878    338.87529   -5977.9111    5992.0619    252.45349    35.558527 
305172000    290.17518    386.92408    252.23722   -5989.3599    6007.3377    134.68686    35.561014 
305176000    312.80921    518.80426    398.58932    -6029.991     6041.845    120.21494    35.546333 
305180000    287.39444    197.93796    356.44015   -6052.0314    6053.2185   -158.50219    35.600684 
305184000    268.73856    270.64383    356.08795    -6041.219    6065.2267   -85.444117    35.601907 
305188000    281.23116     171.2571     331.4776   -6044.6772    6080.6675    -160.2205    35.572476 
305192000    294.43912    587.52885    340.12232   -6096.6998    6104.9067    247.40654    35.555337 
305196000    280.96181     423.3287    319.15939   -6088.2391    6111.4382    104.16931      35.6305 
305200000    288.54403    336.16982    367.96862   -6096.4225    6094.8882   -31.798799    35.606369 
305204000     300.9894    378.24467    289.85133   -6131.9878     6133.411     88.39334    35.764285 
305208000    295.79705    299.52828    427.43084   -6126.4418    6134.6831   -127.90256    35.774563 
305212000    322.95978    437.00082    419.16313   -6175.3268    6149.7277     17.83769    35.969146 
305216000    241.22219    350.55287     293.6856   -6174.9107      6227.64    56.867272    36.004397 
305220000    289.10705    541.29045    209.20622   -6196.3117    6221.2447    332.08423    36.013989 
305224000    273.80247    262.08952    408.16774   -6238.8288    6261.0003   -146.07822    35.993145 
305228000    270.95397    421.87004    234.86859   -6279.1242    6307.3513    187.00146    36.167321 
305232000    326.59527    602.30791    672.02204   -6317.0223    6300.8473   -69.714122    36.163091 
305236000     283.0255    686.23608    364.90491   -6325.6458    6339.4569    321.33117    36.180188 
305240000    280.87505    377.95972     322.4365   -6344.0819    6360.4279    55.523225    36.273845 
305244000     272.0577    302.12719    330.38166   -6389.9012    6398.3362   -28.254466    36.322074 
305248000    270.81391    425.73082    362.07379   -6401.2322    6425.5827    63.657026    36.251877 
305252000     270.0073    275.34182    239.19386   -6420.5405     6445.548    36.147954    36.200621 
305256000    282.26664    259.96881     292.3372   -6470.2694    6480.9839    -32.36839    36.220772 
305260000    286.46065    420.59878    426.86321   -6500.7396    6511.5668   -6.2644372    36.302736 
305264000    287.92302    272.08222    326.05668   -6512.9864    6538.6139   -53.974461    36.386092 
305268000    287.11046    334.01859    244.74593   -6551.3374    6554.0658    89.272655    36.385652 
305272000    290.23436    238.05685    380.12304    -6594.459    6604.6171   -142.06619    36.356765 
305276000    266.24531    365.50189    298.18124   -6640.2226    6650.3184    67.320651    36.428884 
305280000    268.37811    261.95268    367.28646   -6622.7511     6646.613   -105.33378    36.396446 
305284000    278.91617    307.04591    213.72575   -6646.8357    6677.3526    93.320158    36.392524 
305288000    262.33567    222.04549    242.97577   -6677.4053    6715.6307   -20.930282    36.355054 
305292000    271.36293    316.55039    452.38347   -6683.6328    6715.7494   -135.83308    36.291229 
305296000    291.75376    270.31312    285.29223   -6716.4364    6735.1468   -14.979113    36.108865 
305300000     296.0527    362.18505    425.83199   -6750.0366    6764.5239   -63.646937     35.96467 
305304000    297.42208    487.76167     408.0583   -6792.9572    6811.1704    79.703367    36.007238 
305308000    317.29164     356.2896    375.15996   -6811.8481    6826.4957    -18.87035    36.192481 
305312000    285.64221    187.70162    519.42091    -6814.149    6829.9525   -331.71929    36.120786 
305316000    311.11229    407.76484    294.92401   -6857.9062    6847.4669    112.84083    36.056597 
305320000    292.32442    210.19942    189.96009   -6886.0648     6901.779    20.239336     35.99695 
305324000    260.13328    336.02856    290.13775   -6900.8199    6931.8615    45.890801    36.082903 
305328000    273.52167    379.45506    308.34784   -6912.2971    6945.3513    71.107219    36.193547 
305332000    267.51671     368.2895    241.34537   -6938.3821    6968.5079    126.94413    36.142357 
305336000    274.72384    477.40111    113.19002   -6970.7347    6995.0118    364.21109    36.178733 
305340000    281.62085    463.40702    306.21304    -6982.912    7006.9502    157.19398    36.117284 
305344000    295.92737     356.1502    477.43963   -7008.5659    7029.1151   -121.28943    35.908296 
305348000    276.50479     380.3411    212.55658    -7017.165    7031.3381    167.78452    35.957913 
305352000    291.04536     267.4977    231.38519   -7036.5426    7063.5896     36.11251    35.873648 
305356000    280.54474    448.98541     359.5265   -7054.9868    7070.2865    89.458914    35.822073 
305360000    285.01422     221.1589     254.0154   -7059.0625    7089.6778   -32.856493    35.780134 
305364000    269.43422    484.83098    239.71955   -7081.5234    7112.7537    245.11142    35.765118 
305368000    243.00684    264.66963    307.21506   -7097.1428    7133.7233   -42.545429    35.863547 
305372000    287.63828     381.8965    310.50854   -7137.9234    7169.0454    71.387962    35.859199 
305376000    278.84136    380.99356    242.49952   -7193.0422    7217.0159    138.49404    35.788837 
305380000    251.57183    269.07292    275.69756   -7208.9474    7235.3044   -6.6246456    35.724504 
305384000    287.61026    270.22987    335.91071   -7259.6994    7254.9247   -65.680836    35.640858 
305388000    275.43551    182.27644     261.7891    -7269.484    7300.8843   -79.512662    35.569867 
305392000    267.62161     385.2969      438.604   -7278.1016    7305.5698   -53.307105    35.512928 
305396000    254.10571     290.5388    261.46592    -7281.252    7322.1253    29.072882    35.483919 
305400000    277.68982    282.74617    501.86033   -7295.1231    7327.9295   -219.11415    35.496661 
305404000    264.29685    379.94839    333.63297    -7310.949    7344.0549    46.315426    35.527935 
305408000    268.10442    365.77134    471.32382    -7326.892    7342.7158   -105.55248    35.413288 
305412000    270.53393    423.38084    214.62772   -7337.9924    7371.7598    208.75311    35.424513 
305416000    299.39599    461.87799     275.5936    -7371.877    7386.1789    186.28439    35.504338 
305420000    289.35129    437.02594    367.41537   -7438.4815    7456.2593     69.61057    35.612491 
[...]
335368000    285.19079    402.55335    277.87984   -173512.86    173632.51    124.67351    34.657907 
335372000    281.32968     509.7429    231.02144   -173542.58    173664.07    278.72146    34.658158 
335376000    278.62218     466.1411    262.89847   -173576.88    173697.47    203.24262    34.658004 
335380000    272.09517    205.27335      196.416   -173583.79    173710.05    8.8573478    34.661246 
335384000    277.98661    331.76858    249.40466   -173611.24     173727.5    82.363913    34.659831 
335388000    285.23981    314.09371    416.93466   -173622.26    173746.61   -102.84096    34.658337 
335392000    268.22206    644.54995    252.71425   -173647.44    173785.26     391.8357    34.662058 
335396000    273.04014    295.85828    365.11727   -173663.24    173787.56   -69.258994     34.65985 
335400000    299.09907    416.59189    463.56357   -173696.33    173812.09   -46.971683    34.662961 
335404000    313.63171    490.72237    377.94917   -173705.07    173808.25     112.7732    34.664331 
335408000    296.33853    431.62165    312.03331   -173686.96    173805.23    119.58834    34.664079 
335412000     305.4005    541.35547    306.72058   -173715.18    173826.05    234.63489    34.665644 
335416000    270.81888    358.15357    233.64379   -173735.88    173860.88    124.50978     34.66094 
335420000    261.51597    186.23974     423.4304   -173738.33    173860.88   -237.19066    34.659235 
335424000    274.30797    304.04511     351.5156   -173757.86    173899.15   -47.470488    34.657806 
335428000    296.60557    442.70709    519.05232      -173795    173917.04   -76.345238    34.656593 
335432000    255.38279    245.28689    254.68376   -173814.88    173944.23   -9.3968695    34.658265 
335436000    287.24496    533.30416    436.42376   -173817.72    173957.54    96.880394    34.660086 
335440000    277.84131    430.94239    463.10132   -173826.03     173959.9   -32.158926    34.657695 
335444000    273.60573    363.62786    243.03765   -173837.95    173952.84    120.59021    34.657103 
335448000    306.88979    372.25391     273.5102   -173867.02    173983.39    98.743705    34.653399 
335452000    278.92137    297.74651    326.59672   -173880.07    174000.67   -28.850216    34.653456 
335456000    268.58377    421.30801    246.43986   -173890.13    174025.56    174.86816    34.655376 
335460000    275.45906    645.45099    364.27996   -173911.79    174044.25    281.17103    34.653369 
335464000    280.61429    445.94372    480.18672   -173931.98    174041.76      -34.243    34.653247 
335468000    284.66745     370.2921    419.07774   -173936.89    174039.28   -48.785646    34.649897 
335472000    250.41473    259.91314    356.74051   -173914.72    174075.34   -96.827371    34.648562 
335476000    306.42381    420.83992    315.37484    -173966.6    174071.39    105.46509    34.651952 
335480000    266.45354    375.10045    229.65825   -173971.41    174091.13     145.4422    34.652891 
335484000    262.74454    210.60998    234.21647   -173967.39    174093.72   -23.606495    34.653869 
335488000    299.75486    353.82192    270.64652   -173986.51     174117.5    83.175397    34.653956 
335492000    308.75097    262.48385     524.1308   -173994.38    174102.01   -261.64695    34.654139 
335496000    279.80848    410.95651    147.71174   -174028.21    174136.69    263.24477    34.655829 
335500000    287.81311    430.84072    345.82093    -174052.2     174157.1    85.019798    34.650562 
335504000    282.87424     275.3065    413.43165   -174047.93    174159.32   -138.12515    34.651898 
335508000    297.71932    389.69702    282.60752   -174089.96    174205.25     107.0895     34.65593 
335512000    287.85261     412.5415    241.61331   -174084.55    174208.82    170.92819    34.656883 
335516000    301.36991    405.67114    381.71775   -174109.32    174205.94    23.953392    34.662052 
335520000    307.97479    352.56823    309.69237   -174139.37    174241.46     42.87586     34.66536 
335524000    284.43062    426.47182    201.28357   -174172.34    174288.36    225.18824    34.664632 
335528000      267.164    281.74898    310.33299   -174179.88    174327.16   -28.584009    34.667267 
335532000    267.11564    461.66747    325.51661   -174220.03    174341.82    136.15086    34.663833 
335536000    299.85919    512.89218    374.95421   -174271.39    174385.39    137.93797    34.662036 
335540000    297.84735    417.58471    241.29372   -174306.51    174423.49    176.29099    34.657373 
335544000    309.17721    414.44588    280.59074      -174357    174465.93    133.85515    34.657624 
335548000    291.62333    536.66893    416.62482   -174382.37    174495.48    120.04411    34.659039 
335552000    270.31895    286.51634    316.17017   -174385.46    174508.35   -29.653829    34.661671 
335556000    274.26728    492.03566    258.57608   -174422.41    174534.46    233.45958    34.662759 
335560000    286.06449    282.55713    255.65423   -174454.63    174557.56    26.902895    34.661761 
335564000    310.77602    361.20946    448.51546   -174477.29    174586.02   -87.306002    34.658316 
335568000    288.38754    490.50831    253.99703   -174500.54    174639.58    236.51128    34.661167 
335572000    270.04967    309.56357    321.35345   -174530.87    174678.75   -11.789874    34.659679 
335576000    290.30745    485.25639    390.29616   -174567.47    174690.37     94.96023    34.661269 
335580000    262.04879    267.57747    305.98239   -174591.35    174722.35   -38.404924    34.661153 
335584000    258.92794    267.62893    251.16045   -174608.68    174753.08    16.468482     34.66195 
335588000    301.17924    272.51437    508.69824   -174628.89    174747.39   -236.18387    34.665952 
335592000    281.44972    419.37953    310.15766   -174650.77    174778.64    109.22187    34.663746 
335596000    278.11104     391.0826     313.6817   -174684.71    174818.78    77.400902    34.666466 
335600000    286.06263    202.20441    342.09411   -174706.15    174813.33    -139.8897    34.667396 
335604000    275.59949    234.42555    310.05941   -174695.47    174817.89   -75.633862    34.665888 
335608000    259.58152    302.94998     225.3201   -174718.08    174852.94    77.629879    34.668442 
335612000    296.03454    432.92868    379.36297   -174754.25    174864.46    53.565711    34.670781 
335616000    287.71144    274.25367    352.37733   -174774.21    174885.83   -78.123652    34.669706 
335620000    315.19854    620.41139    193.99709   -174805.95    174910.47    426.41429    34.670626 
335624000     278.4864    262.31906    230.56573   -174821.22    174947.11    31.753333    34.668699 
335628000    309.52021    225.53221    521.12376   -174858.26    174964.79   -295.59155    34.665128 
335632000    298.02141    276.15686    354.97341   -174879.12    174991.53   -78.816554    34.667838 
335636000    252.44328    340.36772    296.23361   -174895.98     175024.5    44.134113    34.666078 
335640000    267.47391    327.73859    439.55801   -174906.47     175037.7   -111.81942     34.66202 
335644000    261.41346    272.21181    493.49499   -174911.97       175041   -221.28318    34.658475 
335648000    283.96005    275.03934    399.68471   -174926.67    175043.07   -124.64536    34.660582 
335652000    269.68317       495.22    166.18596    -174958.1     175093.2    329.03404    34.663289 
335656000    303.92505    413.03251    329.14066    -174974.9    175086.46     83.89185    34.667773 
335660000    258.65815    332.04614    295.38387   -174944.32    175073.96     36.66227    34.666243 
335664000    295.31975    302.71133    575.41108   -174953.44    175071.01   -272.69975    34.665437 
335668000    292.78432    287.91002    148.58297   -174978.63    175072.04    139.32705    34.663454 
335672000    286.55804     427.4148    342.45062   -174988.79    175115.44    84.964184     34.66247 
335676000    307.23049    377.01797    227.56849   -175015.36    175126.93    149.44948    34.659758 
335680000    264.94182    244.34847    391.86045   -175032.07    175152.56   -147.51198    34.657029 
335684000    307.98985     426.7537    507.69188   -175093.82     175185.7   -80.938179    34.656265 
335688000    295.40713    346.23034    502.81016   -175123.19     175236.5   -156.57981    34.658598 
335692000    277.35046    463.88891    261.13946      -175134    175264.82    202.74945    34.658391 
335696000    257.87684    302.84522    226.17163   -175142.49    175294.09    76.673588    34.655987 
335700000    276.43866    441.51323    238.55471   -175157.26    175299.87    202.95853    34.659652 
335704000    260.83681    381.24094    316.01895   -175182.06     175314.3    65.221994    34.660427 
335708000    329.11428    276.26708     474.1854   -175209.91    175318.68   -197.91832     34.66073 
335712000    269.40526    320.81043    383.32947    -175220.2    175362.77   -62.519036    34.657414 
335716000    278.66256    486.51218    362.05601   -175275.43    175386.49    124.45617    34.653617 
335720000     302.0993    517.36895    385.41475   -175309.66    175429.12     131.9542    34.651194 
335724000    274.42309    240.27732    281.21874   -175346.35     175463.7    -40.94142    34.654583 
335728000    271.70278    395.84615    395.75058   -175378.97    175497.87  0.095567345    34.650739 
335732000    302.07121     602.9461    360.99748   -175430.69    175536.67    241.94861    34.649492 
335736000    288.68378    340.65831     552.1505   -175469.04    175583.97   -211.49218    34.649729 
335740000    316.54001    426.56517    738.02881   -175507.77    175628.62   -311.46364    34.651518 
335744000    282.77599    341.19948    316.83401    -175558.4    175668.55     24.36547    34.653372 
335748000    272.23913    331.28617    282.05505   -175570.03    175705.04    49.231117    34.648769 
335752000    285.13538    326.39857    335.84124   -175597.63    175743.53    -9.442668    34.653831 
335756000    278.34616    214.59433    412.42109   -175621.13    175734.16   -197.82676    34.653826 
335760000    298.40917    382.70841    269.23763   -175656.59    175769.69    113.47078     34.65338 
335764000    261.13217    223.83354    443.14913   -175688.67    175810.28    -219.3156    34.652571 
335768000    299.88731    268.67181    377.67696   -175763.31    175869.85   -109.00515    34.651357 
335772000    289.38463    463.24146    391.46859   -175800.33    175918.74    71.772871    34.652591 
335776000    267.75317    334.08934    213.36525    -175813.8    175951.36    120.72409    34.651899 
335780000    286.06832    189.26808    219.26975   -175841.45    175965.58   -30.001669     34.65597 
335784000    294.05491      466.867    340.97216   -175871.04    175990.91    125.89484    34.660114 
335788000    264.42021    395.75188    176.52173   -175898.63    176024.27    219.23015    34.660983 
335792000    279.30856     581.0147    372.84288   -175922.77    176043.73    208.17182    34.663424 
335796000     279.6352    249.69147    423.30905   -175971.98    176072.22   -173.61758     34.66106 
335800000    311.45312     349.9767    484.63416   -175986.98    176099.98   -134.65746    34.655241 
335804000    263.98551     314.8131    441.65782   -175976.21    176100.51   -126.84471    34.656112 
335808000    260.09097    276.82059    332.53875   -176001.63    176115.98   -55.718159    34.657962 
335812000      285.714    353.37976    165.52232   -176026.92    176143.43    187.85744    34.662354 
335816000    277.05385    211.04889    419.70092   -176066.14     176198.4   -208.65203    34.662365 
335820000      299.823    334.56953    321.75378   -176088.83    176198.18     12.81575    34.657302 
335824000    285.17915    253.67468    215.41667   -176111.96    176234.31     38.25801    34.654543 
335828000    268.25313    289.01812    549.26167   -176156.89    176276.98   -260.24355    34.656281 
335832000    283.23369    299.38176    231.86735   -176191.13    176310.82     67.51441    34.659427 
335836000    252.36519    369.46781    317.81209   -176196.64    176335.15    51.655724    34.658906 
335840000    250.37105    204.62007    370.22658    -176196.7    176348.87    -165.6065    34.657841 
335844000    306.23089    315.47549     243.4049   -176238.56    176350.38    72.070591    34.655642 
335848000    298.29932     384.6825    442.39475    -176258.7    176378.43   -57.712256    34.655974 
335852000      282.103     423.0617    199.99194   -176256.97    176401.01    223.06976    34.660146 
335856000    271.15368    328.68159    387.67907   -176251.15    176389.22   -58.997478    34.663236 
335860000    265.68425    325.06656    318.98448   -176301.53    176428.46    6.0820802     34.66763 
335864000    299.03303    497.17131    294.05606   -176320.48    176433.62    203.11525    34.666347 
335868000    303.33599    363.18713    521.16088   -176384.53    176469.96   -157.97375    34.666404 
335872000    300.12099    415.37853    347.26317    -176392.9    176505.21    68.115358    34.668159 
335876000    285.57989    428.45209    312.69692    -176413.8    176540.38    115.75517    34.666007 
335880000    284.89128    292.09644    376.97269    -176442.3    176562.04   -84.876249    34.667322 
335884000    280.76819    346.16159    339.53401   -176478.77    176596.05    6.6275815    34.670662 
335888000    248.69714    345.84498    493.28871   -176469.68    176629.52   -147.44373    34.668932 
335892000    294.31066    293.67104    289.03656   -176489.08    176624.34    4.6344847    34.669375 
335896000    269.10492    382.96846    411.73993      -176527    176649.06   -28.771471    34.670286 
335900000    300.50052    366.62255    463.35859   -176559.67    176675.15   -96.736036    34.667864 
335904000    318.03302     288.1506    558.01388   -176621.84    176723.49   -269.86327    34.671421 
335908000    271.15235    379.79572    441.30657   -176641.13    176755.81   -61.510843    34.667623 
335912000    279.82631    312.71471    197.30135   -176670.97    176779.15    115.41337    34.665993 
335916000    315.03655    629.67453    237.81656   -176708.37    176802.04    391.85797    34.663562 
335920000    294.06753    501.19597    334.96815   -176731.01    176832.46    166.22782    34.663061 
335924000    283.00609     480.2001    169.15729   -176741.46    176859.38    311.04281    34.660027 
335928000    256.17315    228.73666    282.26345   -176753.63    176894.49   -53.526785    34.661173 
335932000    257.15291    363.81792    317.30868   -176785.68    176913.14    46.509232    34.657683 
335936000    268.80518    254.04672    294.96382   -176803.05    176934.12   -40.917093    34.652792 
335940000    260.49298    406.92698    227.14869   -176812.71    176968.58    179.77829    34.658174 
335944000    282.45543    274.04451    189.19677   -176862.19    176979.64    84.847737    34.657604 
335948000     309.6922    481.67073    456.93733   -176930.47    177037.95    24.733401    34.653362 
335952000    268.84428    193.08133    221.13378   -176941.45    177074.15   -28.052448    34.651582 
335956000    275.16464    424.09113    228.93067   -176967.85    177096.68    195.16046    34.656012 
335960000    276.91272    477.56083    331.99396    -177006.9    177137.24    145.56687    34.659575 
335964000    301.50818    430.74217    406.06602   -177041.85    177165.65    24.676148    34.657504 
335968000    276.61689    391.79008    268.69038   -177071.14    177196.94    123.09971     34.65608 
335972000    254.52734    367.11599    243.42162   -177092.51    177237.32    123.69437    34.655093 
335976000    285.90722    433.59654    392.33311   -177135.34    177258.57    41.263431    34.655757 
335980000      276.157    307.28692    366.30965    -177160.7    177292.58    -59.02273    34.650271 
335984000    269.02993    251.11716    442.84159   -177176.75    177311.56   -191.72443    34.652408 
335988000    286.29368    281.14206    312.97541   -177212.94    177337.16   -31.833351    34.652788 
335992000    248.24358    406.88303    247.66466   -177230.04     177366.5    159.21837    34.652203 
335996000    338.03676    311.24574    268.98108   -177283.39    177384.79    42.264658    34.648137 
336000000    271.70832    423.65804    254.18649   -177297.15    177426.26    169.47156    34.646702 
336004000    254.52553    302.00031    218.55906   -177310.73    177457.48    83.441246    34.649298 
336008000    258.71117     706.2268    220.43917   -177333.67    177477.96    485.78763    34.646958 
336012000    284.23069    381.57288    457.14683   -177331.85     177453.2   -75.573956       34.643 
336016000     310.9993    325.33746    258.59947   -177370.07    177474.47    66.737989    34.640619 
336020000    281.79122    550.98593    166.40463   -177377.81    177496.14     384.5813    34.645553 
336024000    279.90271     487.4977    299.26461   -177393.11     177530.4    188.23308    34.649195 
336028000    274.03715     233.8341    347.74775   -177405.14    177534.68   -113.91365    34.649042 
336032000    272.54423    260.83003    152.81887   -177446.42    177556.34    108.01116    34.649443 
336036000    303.49519    315.50115    191.83721   -177470.57    177588.67    123.66394    34.650033 
336040000    272.17352    239.42131    234.14715   -177490.59     177630.6    5.2741622    34.648358 
336044000    290.21246    289.05764     492.1192   -177517.23    177644.97   -203.06156    34.648748 
336048000    301.79465    580.94381    272.95466   -177566.82    177686.57    307.98915    34.652125 
336052000    280.97448    403.90101    288.86862   -177578.13    177712.22    115.03239    34.650729 
336056000    294.91588    423.22317    409.43634    -177594.8    177714.14    13.786828    34.651948 
336060000    291.12254    254.67893    341.31963    -177599.3    177709.51     -86.6407    34.649395 
336064000    295.58201    309.97798    326.17885   -177601.74    177726.67   -16.200867    34.647524 
336068000    270.14977    412.00513    372.31279   -177629.07    177753.94    39.692337    34.642315 
336072000    264.71804    294.83258    169.92032   -177656.12    177785.88    124.91227    34.643479 
336076000    294.60392    339.01333    234.34297   -177678.19    177792.34    104.67037      34.6483 
336080000    276.48044    361.38424    208.67069    -177684.4    177791.46    152.71356    34.645805 
336084000    276.20277    312.24807    477.44369      -177703     177830.4   -165.19562     34.64121 
336088000    250.84445    344.51203    346.79662   -177712.79    177848.75   -2.2845836    34.640756 
336092000    272.51177    516.72852    331.72453    -177743.2    177863.83      185.004      34.6356 
336096000    270.31528    290.34899    298.94883    -177763.4    177879.61   -8.5998357    34.633912 
336100000    302.12718    508.99292    540.53916   -177776.38    177888.14   -31.546242    34.635361 
Loop time of 2242.38 on 4 procs for 32000000 steps with 196 atoms

Performance: 1541.222 ns/day, 0.016 hours/ns, 14270.572 timesteps/s
99.9% CPU use with 4 MPI tasks x no OpenMP threads

MPI task timing breakdown:
Section |  min time  |  avg time  |  max time  |%varavg| %total
---------------------------------------------------------------
Pair    | 428.09     | 500.04     | 581.46     | 260.4 | 22.30
Bond    | 867.87     | 907.16     | 964.82     | 118.2 | 40.46
Neigh   | 7.5147     | 7.6444     | 7.7652     |   3.3 |  0.34
Comm    | 307.52     | 367.89     | 410.5      | 217.6 | 16.41
Output  | 8.3109     | 9.8526     | 11.778     |  48.8 |  0.44
Modify  | 378.3      | 391.11     | 405.36     |  61.4 | 17.44
Other   |            | 58.68      |            |       |  2.62

Nlocal:    49 ave 57 max 41 min
Histogram: 2 0 0 0 0 0 0 0 0 2
Nghost:    147 ave 155 max 139 min
Histogram: 2 0 0 0 0 0 0 0 0 2
Neighs:    977.5 ave 1203 max 787 min
Histogram: 1 0 0 1 1 0 0 0 0 1

Total # of neighbors = 3910
Ave neighs/atom = 19.949
Ave special neighs/atom = 5.87755
Neighbor list builds = 96415
Dangerous builds = 0

write_restart FINALCONFIG

Total wall time: 0:39:15
