LAMMPS UA chain data file
 
         196  atoms
         194  bonds
         192  angles
         190  dihedrals
           0  impropers
 
           3  atom types
           1  bond types
           1  angle types
           1  dihedral types
           0  improper types
 
    -400.000000     400.000000 xlo xhi
    -400.000000     400.000000 ylo yhi
    -0.050000      124.000000 zlo zhi
 
Masses
 
  1   14.00
  2   14.00
  3   14.00
 
Atoms

 1 1 3 -3.10452 -0.417819 -0.0123858 0 0 0
 2 1 3 -2.28168 0.467271 1.0698 0 0 0
 3 1 3 -2.56132 0.644949 2.65678 0 0 0
 4 1 1 -1.52156 1.47578 3.56959 0 0 0
 5 1 1 -1.45157 1.63904 5.13799 0 0 0
 6 1 1 -0.0915622 1.49378 6.00239 0 0 0
 7 1 1 -0.0470164 1.50308 7.61559 0 0 0
 8 1 1 0.964051 0.678468 8.61867 0 0 0
 9 1 1 0.7789 0.616793 10.1862 0 0 0
 10 1 1 1.03572 -0.653476 11.1227 0 0 0
 11 1 1 1.10452 -0.881632 12.7251 0 0 0
 12 1 1 -0.0533126 -1.29653 13.7677 0 0 0
 13 1 1 -0.0697058 -1.3297 15.3649 0 0 0
 14 1 1 -1.33785 -0.980156 16.348 0 0 0
 15 1 1 -1.43062 -1.10306 17.9583 0 0 0
 16 1 1 -2.10949 -0.0409443 18.9222 0 0 0
 17 1 1 -2.1675 0.0450097 20.5434 0 0 0
 18 1 1 -2.00703 1.41306 21.3866 0 0 0
 19 1 1 -2.04948 1.61896 23.0438 0 0 0
 20 1 1 -0.804664 2.14623 23.8639 0 0 0
 21 1 1 -0.779273 2.16914 25.456 0 0 0
 22 1 1 0.46858 1.88649 26.4753 0 0 0
 23 1 1 0.524086 1.87407 28.0386 0 0 0
 24 1 1 1.23286 0.818156 28.9898 0 0 0
 25 1 1 1.09723 0.872752 30.5927 0 0 0
 26 1 1 1.1318 -0.460104 31.5126 0 0 0
 27 1 1 1.07925 -0.508595 33.1053 0 0 0
 28 1 1 0.11694 -1.42489 34.0493 0 0 0
 29 1 1 0.119765 -1.44951 35.6813 0 0 0
 30 1 1 -1.03354 -1.21491 36.7861 0 0 0
 31 1 1 -0.951097 -1.24455 38.3926 0 0 0
 32 1 1 -1.79114 -0.417639 39.4145 0 0 0
 33 1 1 -1.78807 -0.302531 41.015 0 0 0
 34 1 1 -1.79861 1.03629 41.9333 0 0 0
 35 1 1 -1.75718 0.946456 43.5511 0 0 0
 36 1 1 -0.863129 1.89737 44.5053 0 0 0
 37 1 1 -0.750854 1.96141 46.1011 0 0 0
 38 1 1 0.486963 1.71776 47.0988 0 0 0
 39 1 1 0.483187 1.69561 48.7113 0 0 0
 40 1 1 1.30054 0.754329 49.7133 0 0 0
 41 1 1 1.13051 0.681747 51.282 0 0 0
 42 1 1 1.10643 -0.702647 52.1299 0 0 0
 43 1 1 1.17008 -0.794304 53.7177 0 0 0
 44 1 1 0.338167 -1.80893 54.7128 0 0 0
 45 1 1 0.14573 -1.5403 56.2977 0 0 0
 46 1 1 -1.03833 -1.8366 57.3774 0 0 0
 47 1 1 -0.927739 -1.13666 58.8791 0 0 0
 48 1 1 -1.91099 -0.774265 60.0696 0 0 0
 49 1 1 -1.62533 0.384995 61.1136 0 0 0
 50 1 1 -1.9504 0.407126 62.6733 0 0 0
 51 1 1 -1.41762 1.53098 63.7145 0 0 0
 52 1 1 -1.36868 1.42067 65.325 0 0 0
 53 1 1 -0.292057 2.03093 66.3708 0 0 0
 54 1 1 0.100609 1.79078 67.9187 0 0 0
 55 1 1 1.33953 1.12404 68.6623 0 0 0
 56 1 1 1.47638 0.831492 70.2483 0 0 0
 57 1 1 1.63654 -0.528539 71.1594 0 0 0
 58 1 1 1.57589 -0.58035 72.7582 0 0 0
 59 1 1 0.66559 -1.59514 73.6425 0 0 0
 60 1 1 0.631879 -1.52855 75.277 0 0 0
 61 1 1 -0.691071 -1.52617 76.2526 0 0 0
 62 1 1 -0.687933 -1.50845 77.8718 0 0 0
 63 1 1 -1.54825 -0.473011 78.7818 0 0 0
 64 1 1 -1.62596 -0.317904 80.3806 0 0 0
 65 1 1 -1.27584 0.936773 81.3877 0 0 0
 66 1 1 -1.37174 0.932183 82.9754 0 0 0
 67 1 1 -0.390131 1.83648 83.905 0 0 0
 68 1 1 -0.111132 1.8347 85.5107 0 0 0
 69 1 1 1.21917 1.62733 86.4051 0 0 0
 70 1 1 1.4752 1.74781 87.9866 0 0 0
 71 1 1 2.04018 0.644813 88.9989 0 0 0
 72 1 1 1.91625 0.723098 90.5888 0 0 0
 73 1 1 1.98727 -0.542116 91.6163 0 0 0
 74 1 1 1.92146 -0.457961 93.1885 0 0 0
 75 1 1 0.999464 -1.33125 94.1725 0 0 0
 76 1 1 1.01524 -1.26563 95.7991 0 0 0
 77 1 1 -0.241767 -1.00365 96.8146 0 0 0
 78 1 1 -0.191409 -0.96113 98.4168 0 0 0
 79 1 1 -0.92642 0.1731 99.309 0 0 0
 80 1 1 -0.869186 0.28122 100.93 0 0 0
 81 1 1 -0.237219 1.35956 101.868 0 0 0
 82 1 1 -0.196764 1.35505 103.432 0 0 0
 83 1 1 1.02383 1.74054 104.437 0 0 0
 84 1 1 0.9905 1.81826 106.02 0 0 0
 85 1 1 2.2328 1.40454 106.965 0 0 0
 86 1 1 2.40685 1.25815 108.574 0 0 0
 87 1 1 2.71909 -0.0526447 109.484 0 0 0
 88 1 1 2.81765 -0.026239 111.076 0 0 0
 89 1 1 2.27842 -1.17278 112.055 0 0 0
 90 1 1 2.22335 -1.18242 113.638 0 0 0
 91 1 1 0.937607 -1.55016 114.537 0 0 0
 92 1 1 0.822425 -1.55664 116.157 0 0 0
 93 1 1 -0.367375 -1.03278 117.06 0 0 0
 94 1 1 -0.386058 -0.880856 118.723 0 0 0
 95 1 1 -1.32786 0.110229 119.613 0 0 0
 96 1 2 -1.4379 0.4302 121.245 0 0 0
 97 1 2 -1.3844 -0.678 122.297 0 0 0
 98 1 2 -1.7147 -0.2091 123.87 0 0 0
 99 2 3 1.78312 -0.064381 -0.0123858 0 0 0
 100 2 3 1.82665 -0.438804 1.53493 0 0 0
 101 2 3 0.640654 -1.08192 2.40317 0 0 0
 102 2 1 0.504687 -1.36497 3.98846 0 0 0
 103 2 1 -0.722303 -1.78148 4.85178 0 0 0
 104 2 1 -0.930976 -1.74785 6.47746 0 0 0
 105 2 1 -2.04508 -1.06671 7.40619 0 0 0
 106 2 1 -1.99079 -0.993278 9.03666 0 0 0
 107 2 1 -2.44327 0.318017 9.93454 0 0 0
 108 2 1 -2.35882 0.515005 11.5725 0 0 0
 109 2 1 -1.56802 1.63387 12.4741 0 0 0
 110 2 1 -1.46064 1.85664 14.0667 0 0 0
 111 2 1 -0.170372 2.02817 15.0284 0 0 0
 112 2 1 -0.143869 1.93102 16.6368 0 0 0
 113 2 1 1.05375 1.32366 17.5106 0 0 0
 114 2 1 1.03794 1.31682 19.1493 0 0 0
 115 2 1 1.32743 0.117791 20.1895 0 0 0
 116 2 1 1.2262 0.0893428 21.8502 0 0 0
 117 2 1 0.298214 -0.863371 22.7532 0 0 0
 118 2 1 0.500576 -1.00083 24.3274 0 0 0
 119 2 1 -0.773552 -1.29696 25.3111 0 0 0
 120 2 1 -0.668479 -1.22755 26.9136 0 0 0
 121 2 1 -1.85821 -0.520815 27.8147 0 0 0
 122 2 1 -1.8719 -0.434634 29.3584 0 0 0
 123 2 1 -2.15342 0.743932 30.4419 0 0 0
 124 2 1 -2.05825 0.742465 32.0663 0 0 0
 125 2 1 -1.39182 1.80649 33.0525 0 0 0
 126 2 1 -1.35372 1.78467 34.6578 0 0 0
 127 2 1 -0.137708 1.9774 35.6841 0 0 0
 128 2 1 -0.234925 2.10543 37.288 0 0 0
 129 2 1 0.873061 1.6043 38.2659 0 0 0
 130 2 1 0.966822 1.62701 39.8596 0 0 0
 131 2 1 1.36713 0.327037 40.8413 0 0 0
 132 2 1 1.45803 0.284131 42.4853 0 0 0
 133 2 1 0.926339 -0.95641 43.3524 0 0 0
 134 2 1 0.947239 -1.08988 44.9258 0 0 0
 135 2 1 -0.382097 -1.37209 45.8417 0 0 0
 136 2 1 -0.430302 -1.3186 47.4896 0 0 0
 137 2 1 -1.66595 -1.03003 48.5107 0 0 0
 138 2 1 -1.64195 -1.02718 50.0842 0 0 0
 139 2 1 -2.10281 0.15658 51.0612 0 0 0
 140 2 1 -2.00775 0.190529 52.6839 0 0 0
 141 2 1 -1.61889 1.40534 53.6536 0 0 0
 142 2 1 -1.21955 1.21762 55.125 0 0 0
 143 2 1 -0.551073 2.19361 56.2246 0 0 0
 144 2 1 0.496844 1.55901 57.2303 0 0 0
 145 2 1 0.691168 1.77198 58.8606 0 0 0
 146 2 1 1.49144 0.804027 59.8019 0 0 0
 147 2 1 1.42781 0.941483 61.448 0 0 0
 148 2 1 1.44768 -0.314819 62.4954 0 0 0
 149 2 1 1.3921 -0.371606 64.1122 0 0 0
 150 2 1 0.423324 -1.31492 65.042 0 0 0
 151 2 1 0.430664 -1.46146 66.6322 0 0 0
 152 2 1 -0.895011 -1.27632 67.5428 0 0 0
 153 2 1 -1.02097 -1.11328 69.156 0 0 0
 154 2 1 -1.79949 -0.0616919 70.1329 0 0 0
 155 2 1 -1.66239 0.071581 71.7139 0 0 0
 156 2 1 -1.13998 1.33821 72.5228 0 0 0
 157 2 1 -0.982886 1.35035 74.1593 0 0 0
 158 2 1 0.242197 1.73079 75.0465 0 0 0
 159 2 1 0.253496 1.72932 76.6658 0 0 0
 160 2 1 1.44941 1.12607 77.6965 0 0 0
 161 2 1 1.36368 1.0871 79.3213 0 0 0
 162 2 1 1.91061 -0.0471203 80.2998 0 0 0
 163 2 1 1.8342 0.0151112 81.8943 0 0 0
 164 2 1 1.22922 -1.15783 82.8446 0 0 0
 165 2 1 1.31591 -1.26678 84.4984 0 0 0
 166 2 1 -0.0229074 -1.52123 85.3923 0 0 0
 167 2 1 0.0728337 -1.39041 87.0187 0 0 0
 168 2 1 -1.09112 -0.695667 87.9077 0 0 0
 169 2 1 -1.02499 -0.488501 89.4958 0 0 0
 170 2 1 -1.44436 0.775981 90.38 0 0 0
 171 2 1 -1.31855 0.843612 91.9687 0 0 0
 172 2 1 -0.449676 1.79248 92.9166 0 0 0
 173 2 1 -0.415653 1.84876 94.5493 0 0 0
 174 2 1 0.901681 2.18214 95.4573 0 0 0
 175 2 1 1.05709 2.0716 97.1044 0 0 0
 176 2 1 2.17641 1.22235 97.9631 0 0 0
 177 2 1 2.36922 1.06191 99.583 0 0 0
 178 2 1 2.55082 -0.318294 100.422 0 0 0
 179 2 1 2.52805 -0.464934 102.043 0 0 0
 180 2 1 1.68559 -1.51644 102.942 0 0 0
 181 2 1 1.68164 -1.57528 104.586 0 0 0
 182 2 1 0.401177 -1.51543 105.591 0 0 0
 183 2 1 0.393959 -1.43468 107.231 0 0 0
 184 2 1 -0.518807 -0.5002 108.188 0 0 0
 185 2 1 -0.527102 -0.47366 109.773 0 0 0
 186 2 1 -0.392195 0.748923 110.843 0 0 0
 187 2 1 -0.358538 0.909135 112.446 0 0 0
 188 2 1 0.627973 1.77793 113.35 0 0 0
 189 2 1 0.650472 1.71027 114.968 0 0 0
 190 2 1 1.85845 2.02864 115.959 0 0 0
 191 2 1 1.70807 1.64618 117.524 0 0 0
 192 2 1 2.81975 1.41248 118.657 0 0 0
 193 2 1 2.52126 0.477857 119.946 0 0 0
 194 2 2 3.4621 0.4302 121.245 0 0 0
 195 2 2 3.5156 -0.678 122.297 0 0 0
 196 2 2 3.1853 -0.2091 123.87 0 0 0

Bonds
 
       1         1         1       2
       2         1         2       3
       3         1         3       4
       4         1         4       5
       5         1         5       6
       6         1         6       7
       7         1         7       8
       8         1         8       9
       9         1         9      10
      10         1        10      11
      11         1        11      12
      12         1        12      13
      13         1        13      14
      14         1        14      15
      15         1        15      16
      16         1        16      17
      17         1        17      18
      18         1        18      19
      19         1        19      20
      20         1        20      21
      21         1        21      22
      22         1        22      23
      23         1        23      24
      24         1        24      25
      25         1        25      26
      26         1        26      27
      27         1        27      28
      28         1        28      29
      29         1        29      30
      30         1        30      31
      31         1        31      32
      32         1        32      33
      33         1        33      34
      34         1        34      35
      35         1        35      36
      36         1        36      37
      37         1        37      38
      38         1        38      39
      39         1        39      40
      40         1        40      41
      41         1        41      42
      42         1        42      43
      43         1        43      44
      44         1        44      45
      45         1        45      46
      46         1        46      47
      47         1        47      48
      48         1        48      49
      49         1        49      50
      50         1        50      51
      51         1        51      52
      52         1        52      53
      53         1        53      54
      54         1        54      55
      55         1        55      56
      56         1        56      57
      57         1        57      58
      58         1        58      59
      59         1        59      60
      60         1        60      61
      61         1        61      62
      62         1        62      63
      63         1        63      64
      64         1        64      65
      65         1        65      66
      66         1        66      67
      67         1        67      68
      68         1        68      69
      69         1        69      70
      70         1        70      71
      71         1        71      72
      72         1        72      73
      73         1        73      74
      74         1        74      75
      75         1        75      76
      76         1        76      77
      77         1        77      78
      78         1        78      79
      79         1        79      80
      80         1        80      81
      81         1        81      82
      82         1        82      83
      83         1        83      84
      84         1        84      85
      85         1        85      86
      86         1        86      87
      87         1        87      88
      88         1        88      89
      89         1        89      90
      90         1        90      91
      91         1        91      92
      92         1        92      93
      93         1        93      94
      94         1        94      95
      95         1        95      96
      96         1        96      97
      97         1        97      98
      98         1        99     100
      99         1       100     101
     100         1       101     102
     101         1       102     103
     102         1       103     104
     103         1       104     105
     104         1       105     106
     105         1       106     107
     106         1       107     108
     107         1       108     109
     108         1       109     110
     109         1       110     111
     110         1       111     112
     111         1       112     113
     112         1       113     114
     113         1       114     115
     114         1       115     116
     115         1       116     117
     116         1       117     118
     117         1       118     119
     118         1       119     120
     119         1       120     121
     120         1       121     122
     121         1       122     123
     122         1       123     124
     123         1       124     125
     124         1       125     126
     125         1       126     127
     126         1       127     128
     127         1       128     129
     128         1       129     130
     129         1       130     131
     130         1       131     132
     131         1       132     133
     132         1       133     134
     133         1       134     135
     134         1       135     136
     135         1       136     137
     136         1       137     138
     137         1       138     139
     138         1       139     140
     139         1       140     141
     140         1       141     142
     141         1       142     143
     142         1       143     144
     143         1       144     145
     144         1       145     146
     145         1       146     147
     146         1       147     148
     147         1       148     149
     148         1       149     150
     149         1       150     151
     150         1       151     152
     151         1       152     153
     152         1       153     154
     153         1       154     155
     154         1       155     156
     155         1       156     157
     156         1       157     158
     157         1       158     159
     158         1       159     160
     159         1       160     161
     160         1       161     162
     161         1       162     163
     162         1       163     164
     163         1       164     165
     164         1       165     166
     165         1       166     167
     166         1       167     168
     167         1       168     169
     168         1       169     170
     169         1       170     171
     170         1       171     172
     171         1       172     173
     172         1       173     174
     173         1       174     175
     174         1       175     176
     175         1       176     177
     176         1       177     178
     177         1       178     179
     178         1       179     180
     179         1       180     181
     180         1       181     182
     181         1       182     183
     182         1       183     184
     183         1       184     185
     184         1       185     186
     185         1       186     187
     186         1       187     188
     187         1       188     189
     188         1       189     190
     189         1       190     191
     190         1       191     192
     191         1       192     193
     192         1       193     194
     193         1       194     195
     194         1       195     196
 
Angles
 
           1           1           1           2           3
           2           1           2           3           4
           3           1           3           4           5
           4           1           4           5           6
           5           1           5           6           7
           6           1           6           7           8
           7           1           7           8           9
           8           1           8           9          10
           9           1           9          10          11
          10           1          10          11          12
          11           1          11          12          13
          12           1          12          13          14
          13           1          13          14          15
          14           1          14          15          16
          15           1          15          16          17
          16           1          16          17          18
          17           1          17          18          19
          18           1          18          19          20
          19           1          19          20          21
          20           1          20          21          22
          21           1          21          22          23
          22           1          22          23          24
          23           1          23          24          25
          24           1          24          25          26
          25           1          25          26          27
          26           1          26          27          28
          27           1          27          28          29
          28           1          28          29          30
          29           1          29          30          31
          30           1          30          31          32
          31           1          31          32          33
          32           1          32          33          34
          33           1          33          34          35
          34           1          34          35          36
          35           1          35          36          37
          36           1          36          37          38
          37           1          37          38          39
          38           1          38          39          40
          39           1          39          40          41
          40           1          40          41          42
          41           1          41          42          43
          42           1          42          43          44
          43           1          43          44          45
          44           1          44          45          46
          45           1          45          46          47
          46           1          46          47          48
          47           1          47          48          49
          48           1          48          49          50
          49           1          49          50          51
          50           1          50          51          52
          51           1          51          52          53
          52           1          52          53          54
          53           1          53          54          55
          54           1          54          55          56
          55           1          55          56          57
          56           1          56          57          58
          57           1          57          58          59
          58           1          58          59          60
          59           1          59          60          61
          60           1          60          61          62
          61           1          61          62          63
          62           1          62          63          64
          63           1          63          64          65
          64           1          64          65          66
          65           1          65          66          67
          66           1          66          67          68
          67           1          67          68          69
          68           1          68          69          70
          69           1          69          70          71
          70           1          70          71          72
          71           1          71          72          73
          72           1          72          73          74
          73           1          73          74          75
          74           1          74          75          76
          75           1          75          76          77
          76           1          76          77          78
          77           1          77          78          79
          78           1          78          79          80
          79           1          79          80          81
          80           1          80          81          82
          81           1          81          82          83
          82           1          82          83          84
          83           1          83          84          85
          84           1          84          85          86
          85           1          85          86          87
          86           1          86          87          88
          87           1          87          88          89
          88           1          88          89          90
          89           1          89          90          91
          90           1          90          91          92
          91           1          91          92          93
          92           1          92          93          94
          93           1          93          94          95
          94           1          94          95          96
          95           1          95          96          97
          96           1          96          97          98
          97           1          99         100         101
          98           1         100         101         102
          99           1         101         102         103
         100           1         102         103         104
         101           1         103         104         105
         102           1         104         105         106
         103           1         105         106         107
         104           1         106         107         108
         105           1         107         108         109
         106           1         108         109         110
         107           1         109         110         111
         108           1         110         111         112
         109           1         111         112         113
         110           1         112         113         114
         111           1         113         114         115
         112           1         114         115         116
         113           1         115         116         117
         114           1         116         117         118
         115           1         117         118         119
         116           1         118         119         120
         117           1         119         120         121
         118           1         120         121         122
         119           1         121         122         123
         120           1         122         123         124
         121           1         123         124         125
         122           1         124         125         126
         123           1         125         126         127
         124           1         126         127         128
         125           1         127         128         129
         126           1         128         129         130
         127           1         129         130         131
         128           1         130         131         132
         129           1         131         132         133
         130           1         132         133         134
         131           1         133         134         135
         132           1         134         135         136
         133           1         135         136         137
         134           1         136         137         138
         135           1         137         138         139
         136           1         138         139         140
         137           1         139         140         141
         138           1         140         141         142
         139           1         141         142         143
         140           1         142         143         144
         141           1         143         144         145
         142           1         144         145         146
         143           1         145         146         147
         144           1         146         147         148
         145           1         147         148         149
         146           1         148         149         150
         147           1         149         150         151
         148           1         150         151         152
         149           1         151         152         153
         150           1         152         153         154
         151           1         153         154         155
         152           1         154         155         156
         153           1         155         156         157
         154           1         156         157         158
         155           1         157         158         159
         156           1         158         159         160
         157           1         159         160         161
         158           1         160         161         162
         159           1         161         162         163
         160           1         162         163         164
         161           1         163         164         165
         162           1         164         165         166
         163           1         165         166         167
         164           1         166         167         168
         165           1         167         168         169
         166           1         168         169         170
         167           1         169         170         171
         168           1         170         171         172
         169           1         171         172         173
         170           1         172         173         174
         171           1         173         174         175
         172           1         174         175         176
         173           1         175         176         177
         174           1         176         177         178
         175           1         177         178         179
         176           1         178         179         180
         177           1         179         180         181
         178           1         180         181         182
         179           1         181         182         183
         180           1         182         183         184
         181           1         183         184         185
         182           1         184         185         186
         183           1         185         186         187
         184           1         186         187         188
         185           1         187         188         189
         186           1         188         189         190
         187           1         189         190         191
         188           1         190         191         192
         189           1         191         192         193
         190           1         192         193         194
         191           1         193         194         195
         192           1         194         195         196
 
Dihedrals
 
           1           1           1           2           3           4
           2           1           2           3           4           5
           3           1           3           4           5           6
           4           1           4           5           6           7
           5           1           5           6           7           8
           6           1           6           7           8           9
           7           1           7           8           9          10
           8           1           8           9          10          11
           9           1           9          10          11          12
          10           1          10          11          12          13
          11           1          11          12          13          14
          12           1          12          13          14          15
          13           1          13          14          15          16
          14           1          14          15          16          17
          15           1          15          16          17          18
          16           1          16          17          18          19
          17           1          17          18          19          20
          18           1          18          19          20          21
          19           1          19          20          21          22
          20           1          20          21          22          23
          21           1          21          22          23          24
          22           1          22          23          24          25
          23           1          23          24          25          26
          24           1          24          25          26          27
          25           1          25          26          27          28
          26           1          26          27          28          29
          27           1          27          28          29          30
          28           1          28          29          30          31
          29           1          29          30          31          32
          30           1          30          31          32          33
          31           1          31          32          33          34
          32           1          32          33          34          35
          33           1          33          34          35          36
          34           1          34          35          36          37
          35           1          35          36          37          38
          36           1          36          37          38          39
          37           1          37          38          39          40
          38           1          38          39          40          41