LAMMPS UA chain data file
 
         196  atoms
         194  bonds
         192  angles
         190  dihedrals
           0  impropers
 
           3  atom types
           1  bond types
           1  angle types
           1  dihedral types
           0  improper types
 
    -400.000000     400.000000 xlo xhi
    -400.000000     400.000000 ylo yhi
    -0.050000      124.000000 zlo zhi
 
Masses
 
  1   14.00
  2   14.00
  3   14.00
 
Atoms

 1 1 3 -2.99848 -0.974659 -0.0123858 0 0 0
 2 1 3 -2.40394 -0.0203884 1.18259 0 0 0
 3 1 3 -2.60181 0.148887 2.74877 0 0 0
 4 1 1 -1.7614 1.18154 3.72165 0 0 0
 5 1 1 -1.71581 1.19349 5.33427 0 0 0
 6 1 1 -0.554126 1.82545 6.33374 0 0 0
 7 1 1 -0.469261 1.94778 7.89695 0 0 0
 8 1 1 0.620074 1.18221 8.81756 0 0 0
 9 1 1 0.738073 1.18323 10.4433 0 0 0
 10 1 1 0.752936 -0.0499138 11.4961 0 0 0
 11 1 1 0.77104 0.0472798 13.1002 0 0 0
 12 1 1 0.0230176 -1.04695 14.0475 0 0 0
 13 1 1 -0.12071 -0.9528 15.6893 0 0 0
 14 1 1 -1.3629 -1.31615 16.6789 0 0 0
 15 1 1 -1.33829 -1.29259 18.2598 0 0 0
 16 1 1 -2.50601 -0.58051 19.1655 0 0 0
 17 1 1 -2.43967 -0.412476 20.7786 0 0 0
 18 1 1 -2.59401 0.904037 21.6353 0 0 0
 19 1 1 -2.43842 0.993309 23.2184 0 0 0
 20 1 1 -1.31001 1.75618 24.1773 0 0 0
 21 1 1 -1.30326 1.92083 25.8076 0 0 0
 22 1 1 0.0275125 1.87318 26.7149 0 0 0
 23 1 1 0.210041 1.96362 28.3151 0 0 0
 24 1 1 0.881913 0.752776 29.1282 0 0 0
 25 1 1 0.913963 0.63186 30.7638 0 0 0
 26 1 1 0.599802 -0.646177 31.7159 0 0 0
 27 1 1 0.770153 -0.789545 33.3466 0 0 0
 28 1 1 -0.273174 -1.51088 34.3354 0 0 0
 29 1 1 -0.201983 -1.35423 35.9019 0 0 0
 30 1 1 -1.24258 -1.70919 37.0987 0 0 0
 31 1 1 -1.76149 -0.737818 38.2753 0 0 0
 32 1 1 -1.90947 -0.941895 39.8879 0 0 0
 33 1 1 -2.14243 0.284606 40.9061 0 0 0
 34 1 1 -2.15637 0.323841 42.4877 0 0 0
 35 1 1 -1.70737 1.56403 43.3938 0 0 0
 36 1 1 -1.56624 1.60937 45.0179 0 0 0
 37 1 1 -0.482054 2.3974 45.9792 0 0 0
 38 1 1 -0.366321 2.40159 47.5957 0 0 0
 39 1 1 0.878851 1.89962 48.4648 0 0 0
 40 1 1 0.929229 1.89731 50.0674 0 0 0
 41 1 1 1.37499 0.730555 51.0809 0 0 0
 42 1 1 1.39153 0.731328 52.6903 0 0 0
 43 1 1 0.951635 -0.416812 53.6742 0 0 0
 44 1 1 0.856303 -0.471471 55.2481 0 0 0
 45 1 1 -0.159898 -1.29966 56.1903 0 0 0
 46 1 1 -0.24948 -1.05763 57.8026 0 0 0
 47 1 1 -1.59745 -0.927239 58.6915 0 0 0
 48 1 1 -1.69995 -1.06426 60.3164 0 0 0
 49 1 1 -2.19712 0.0609914 61.3394 0 0 0
 50 1 1 -2.39084 -0.050872 62.9423 0 0 0
 51 1 1 -1.7421 1.14855 63.8724 0 0 0
 52 1 1 -1.6383 1.21637 65.4872 0 0 0
 53 1 1 -0.360996 1.6814 66.3512 0 0 0
 54 1 1 -0.279076 1.56334 67.9616 0 0 0
 55 1 1 0.97556 1.27404 68.9006 0 0 0
 56 1 1 0.900591 1.27362 70.537 0 0 0
 57 1 1 1.59279 0.231399 71.5804 0 0 0
 58 1 1 1.33374 0.245894 73.1675 0 0 0
 59 1 1 0.804165 -1.00779 74.0661 0 0 0
 60 1 1 0.690242 -0.985229 75.6731 0 0 0
 61 1 1 -0.602873 -1.33035 76.5253 0 0 0
 62 1 1 -0.566098 -1.4627 78.1158 0 0 0
 63 1 1 -1.63291 -0.910226 79.1408 0 0 0
 64 1 1 -1.59298 -0.758676 80.7527 0 0 0
 65 1 1 -2.01533 0.511475 81.7639 0 0 0
 66 1 1 -1.91613 0.57775 83.3617 0 0 0
 67 1 1 -1.35779 1.74735 84.2889 0 0 0
 68 1 1 -1.14672 1.7761 85.8852 0 0 0
 69 1 1 0.225624 1.89904 86.6928 0 0 0
 70 1 1 0.38255 1.78457 88.279 0 0 0
 71 1 1 1.39845 0.891527 89.1645 0 0 0
 72 1 1 1.43223 0.811769 90.7983 0 0 0
 73 1 1 1.5363 -0.49398 91.7787 0 0 0
 74 1 1 1.62992 -0.549605 93.4192 0 0 0
 75 1 1 1.0467 -1.66836 94.3666 0 0 0
 76 1 1 0.849244 -1.66275 96.0025 0 0 0
 77 1 1 -0.493741 -1.76086 96.9109 0 0 0
 78 1 1 -0.534483 -1.5486 98.5258 0 0 0
 79 1 1 -1.42154 -0.632045 99.4114 0 0 0
 80 1 1 -1.37432 -0.453405 101.033 0 0 0
 81 1 1 -1.19305 0.902399 101.919 0 0 0
 82 1 1 -1.01687 0.984322 103.518 0 0 0
 83 1 1 0.293832 1.47777 104.379 0 0 0
 84 1 1 0.368559 1.6979 106.011 0 0 0
 85 1 1 1.64089 1.33589 106.974 0 0 0
 86 1 1 1.60041 1.243 108.568 0 0 0
 87 1 1 2.27352 0.154742 109.533 0 0 0
 88 1 1 2.43745 0.0327726 111.158 0 0 0
 89 1 1 1.81465 -1.1698 112.067 0 0 0
 90 1 1 1.88638 -1.26125 113.71 0 0 0
 91 1 1 0.682823 -1.63151 114.712 0 0 0
 92 1 1 0.652671 -1.63384 116.353 0 0 0
 93 1 1 -0.603803 -1.20009 117.217 0 0 0
 94 1 1 -0.484293 -0.92626 118.851 0 0 0
 95 1 1 -1.56091 -0.130929 119.744 0 0 0
 96 1 2 -1.4379 0.4302 121.245 0 0 0
 97 1 2 -1.3844 -0.678 122.297 0 0 0
 98 1 2 -1.7147 -0.2091 123.87 0 0 0
 99 2 3 1.67708 0.492459 -0.0123858 0 0 0
 100 2 3 1.72395 0.243037 1.63994 0 0 0
 101 2 3 0.933201 -0.811962 2.52996 0 0 0
 102 2 1 1.04663 -0.946304 4.19956 0 0 0
 103 2 1 -0.153787 -1.60154 5.16003 0 0 0
 104 2 1 -0.192038 -1.62791 6.77537 0 0 0
 105 2 1 -1.51254 -1.48589 7.77268 0 0 0
 106 2 1 -1.67151 -1.33189 9.41006 0 0 0
 107 2 1 -2.51513 -0.224564 10.2279 0 0 0
 108 2 1 -2.69717 -0.0843633 11.8248 0 0 0
 109 2 1 -2.18259 1.14402 12.7016 0 0 0
 110 2 1 -2.33205 1.26353 14.2971 0 0 0
 111 2 1 -1.32378 2.13469 15.2731 0 0 0
 112 2 1 -1.33697 2.08164 16.8472 0 0 0
 113 2 1 -0.0446704 1.80611 17.7182 0 0 0
 114 2 1 -0.0285941 1.47631 19.2873 0 0 0
 115 2 1 0.777005 0.393999 20.1801 0 0 0
 116 2 1 0.742128 0.28373 21.8038 0 0 0
 117 2 1 0.311408 -0.985293 22.7329 0 0 0
 118 2 1 0.156843 -1.06809 24.3924 0 0 0
 119 2 1 -1.10095 -1.49253 25.3827 0 0 0
 120 2 1 -1.11695 -1.37747 27.0207 0 0 0
 121 2 1 -2.20676 -0.631689 27.9946 0 0 0
 122 2 1 -2.21206 -0.567698 29.5891 0 0 0
 123 2 1 -2.53742 0.595903 30.6263 0 0 0
 124 2 1 -2.57151 0.565845 32.2951 0 0 0
 125 2 1 -1.69949 1.54023 33.2369 0 0 0
 126 2 1 -1.57254 1.4698 34.8278 0 0 0
 127 2 1 -0.780704 2.30921 35.9713 0 0 0
 128 2 1 0.242605 1.58457 36.9515 0 0 0
 129 2 1 0.318507 1.77321 38.538 0 0 0
 130 2 1 1.18682 0.851671 39.4545 0 0 0
 131 2 1 1.23772 1.00345 41.0198 0 0 0
 132 2 1 1.22057 -0.230142 42.0824 0 0 0
 133 2 1 1.15114 -0.0696744 43.6696 0 0 0
 134 2 1 0.549015 -1.1268 44.713 0 0 0
 135 2 1 0.426183 -0.821388 46.2872 0 0 0
 136 2 1 -0.872715 -0.839015 47.2488 0 0 0
 137 2 1 -1.00648 -0.870239 48.8717 0 0 0
 138 2 1 -1.90316 0.0427061 49.8062 0 0 0
 139 2 1 -2.0431 -0.00900203 51.3923 0 0 0
 140 2 1 -2.07816 1.22624 52.4365 0 0 0
 141 2 1 -2.18624 1.14673 54.0473 0 0 0
 142 2 1 -1.30433 2.02214 55.0789 0 0 0
 143 2 1 -1.31899 1.9494 56.7288 0 0 0
 144 2 1 -0.105548 2.2064 57.7668 0 0 0
 145 2 1 -0.0356203 2.09305 59.3665 0 0 0
 146 2 1 0.798779 0.939492 60.199 0 0 0
 147 2 1 1.02713 0.861228 61.7926 0 0 0
 148 2 1 0.956653 -0.458844 62.6623 0 0 0
 149 2 1 1.12517 -0.578209 64.2909 0 0 0
 150 2 1 0.220072 -1.59069 65.1445 0 0 0
 151 2 1 0.085859 -1.61148 66.7624 0 0 0
 152 2 1 -1.1595 -1.59325 67.7363 0 0 0
 153 2 1 -1.10397 -1.49178 69.3922 0 0 0
 154 2 1 -1.97519 -0.499833 70.2852 0 0 0
 155 2 1 -1.80473 -0.216799 71.901 0 0 0
 156 2 1 -1.95342 1.15861 72.7527 0 0 0
 157 2 1 -1.87586 1.33622 74.3696 0 0 0
 158 2 1 -0.688171 1.96813 75.3211 0 0 0
 159 2 1 -0.795889 2.1238 76.9244 0 0 0
 160 2 1 0.474241 1.83317 77.8832 0 0 0
 161 2 1 0.480671 1.88466 79.4642 0 0 0
 162 2 1 1.30033 0.913964 80.4629 0 0 0
 163 2 1 1.27372 0.80672 82.0817 0 0 0
 164 2 1 1.17475 -0.53406 82.9912 0 0 0
 165 2 1 1.07332 -0.742236 84.6265 0 0 0
 166 2 1 -0.0812108 -1.31884 85.6102 0 0 0
 167 2 1 -0.130457 -1.46002 87.2337 0 0 0
 168 2 1 -1.39254 -1.04891 88.135 0 0 0
 169 2 1 -1.37295 -1.03436 89.7561 0 0 0
 170 2 1 -1.7339 0.22538 90.6716 0 0 0
 171 2 1 -1.71456 0.211228 92.2585 0 0 0
 172 2 1 -1.20829 1.33444 93.3051 0 0 0
 173 2 1 -1.27837 1.3669 94.9026 0 0 0
 174 2 1 0.0714662 1.60803 95.7596 0 0 0
 175 2 1 0.198392 1.72139 97.368 0 0 0
 176 2 1 1.40117 1.0687 98.1227 0 0 0
 177 2 1 1.60176 1.07519 99.7242 0 0 0
 178 2 1 2.00715 -0.206983 100.639 0 0 0
 179 2 1 1.9902 -0.37743 102.293 0 0 0
 180 2 1 1.34598 -1.48079 103.268 0 0 0
 181 2 1 1.32159 -1.42129 104.89 0 0 0
 182 2 1 0.062202 -1.72962 105.814 0 0 0
 183 2 1 -0.0492238 -1.57074 107.409 0 0 0
 184 2 1 -1.04869 -0.700003 108.248 0 0 0
 185 2 1 -0.976049 -0.562876 109.853 0 0 0
 186 2 1 -0.908336 0.743361 110.779 0 0 0
 187 2 1 -0.654882 0.75408 112.361 0 0 0
 188 2 1 0.218055 1.6902 113.314 0 0 0
 189 2 1 0.324837 1.57072 114.934 0 0 0
 190 2 1 1.62668 1.84251 115.871 0 0 0
 191 2 1 1.66241 1.32722 117.431 0 0 0
 192 2 1 2.78282 1.42665 118.614 0 0 0
 193 2 1 2.68044 0.328059 119.812 0 0 0
 194 2 2 3.4621 0.4302 121.245 0 0 0
 195 2 2 3.5156 -0.678 122.297 0 0 0
 196 2 2 3.1853 -0.2091 123.87 0 0 0

Bonds
 
       1         1         1       2
       2         1         2       3
       3         1         3       4
       4         1         4       5
       5         1         5       6
       6         1         6       7
       7         1         7       8
       8         1         8       9
       9         1         9      10
      10         1        10      11
      11         1        11      12
      12         1        12      13
      13         1        13      14
      14         1        14      15
      15         1        15      16
      16         1        16      17
      17         1        17      18
      18         1        18      19
      19         1        19      20
      20         1        20      21
      21         1        21      22
      22         1        22      23
      23         1        23      24
      24         1        24      25
      25         1        25      26
      26         1        26      27
      27         1        27      28
      28         1        28      29
      29         1        29      30
      30         1        30      31
      31         1        31      32
      32         1        32      33
      33         1        33      34
      34         1        34      35
      35         1        35      36
      36         1        36      37
      37         1        37      38
      38         1        38      39
      39         1        39      40
      40         1        40      41
      41         1        41      42
      42         1        42      43
      43         1        43      44
      44         1        44      45
      45         1        45      46
      46         1        46      47
      47         1        47      48
      48         1        48      49
      49         1        49      50
      50         1        50      51
      51         1        51      52
      52         1        52      53
      53         1        53      54
      54         1        54      55
      55         1        55      56
      56         1        56      57
      57         1        57      58
      58         1        58      59
      59         1        59      60
      60         1        60      61
      61         1        61      62
      62         1        62      63
      63         1        63      64
      64         1        64      65
      65         1        65      66
      66         1        66      67
      67         1        67      68
      68         1        68      69
      69         1        69      70
      70         1        70      71
      71         1        71      72
      72         1        72      73
      73         1        73      74
      74         1        74      75
      75         1        75      76
      76         1        76      77
      77         1        77      78
      78         1        78      79
      79         1        79      80
      80         1        80      81
      81         1        81      82
      82         1        82      83
      83         1        83      84
      84         1        84      85
      85         1        85      86
      86         1        86      87
      87         1        87      88
      88         1        88      89
      89         1        89      90
      90         1        90      91
      91         1        91      92
      92         1        92      93
      93         1        93      94
      94         1        94      95
      95         1        95      96
      96         1        96      97
      97         1        97      98
      98         1        99     100
      99         1       100     101
     100         1       101     102
     101         1       102     103
     102         1       103     104
     103         1       104     105
     104         1       105     106
     105         1       106     107
     106         1       107     108
     107         1       108     109
     108         1       109     110
     109         1       110     111
     110         1       111     112
     111         1       112     113
     112         1       113     114
     113         1       114     115
     114         1       115     116
     115         1       116     117
     116         1       117     118
     117         1       118     119
     118         1       119     120
     119         1       120     121
     120         1       121     122
     121         1       122     123
     122         1       123     124
     123         1       124     125
     124         1       125     126
     125         1       126     127
     126         1       127     128
     127         1       128     129
     128         1       129     130
     129         1       130     131
     130         1       131     132
     131         1       132     133
     132         1       133     134
     133         1       134     135
     134         1       135     136
     135         1       136     137
     136         1       137     138
     137         1       138     139
     138         1       139     140
     139         1       140     141
     140         1       141     142
     141         1       142     143
     142         1       143     144
     143         1       144     145
     144         1       145     146
     145         1       146     147
     146         1       147     148
     147         1       148     149
     148         1       149     150
     149         1       150     151
     150         1       151     152
     151         1       152     153
     152         1       153     154
     153         1       154     155
     154         1       155     156
     155         1       156     157
     156         1       157     158
     157         1       158     159
     158         1       159     160
     159         1       160     161
     160         1       161     162
     161         1       162     163
     162         1       163     164
     163         1       164     165
     164         1       165     166
     165         1       166     167
     166         1       167     168
     167         1       168     169
     168         1       169     170
     169         1       170     171
     170         1       171     172
     171         1       172     173
     172         1       173     174
     173         1       174     175
     174         1       175     176
     175         1       176     177
     176         1       177     178
     177         1       178     179
     178         1       179     180
     179         1       180     181
     180         1       181     182
     181         1       182     183
     182         1       183     184
     183         1       184     185
     184         1       185     186
     185         1       186     187
     186         1       187     188
     187         1       188     189
     188         1       189     190
     189         1       190     191
     190         1       191     192
     191         1       192     193
     192         1       193     194
     193         1       194     195
     194         1       195     196
 
Angles
 
           1           1           1           2           3
           2           1           2           3           4
           3           1           3           4           5
           4           1           4           5           6
           5           1           5           6           7
           6           1           6           7           8
           7           1           7           8           9
           8           1           8           9          10
           9           1           9          10          11
          10           1          10          11          12
          11           1          11          12          13
          12           1          12          13          14
          13           1          13          14          15
          14           1          14          15          16
          15           1          15          16          17
          16           1          16          17          18
          17           1          17          18          19
          18           1          18          19          20
          19           1          19          20          21
          20           1          20          21          22
          21           1          21          22          23
          22           1          22          23          24
          23           1          23          24          25
          24           1          24          25          26
          25           1          25          26          27
          26           1          26          27          28
          27           1          27          28          29
          28           1          28          29          30
          29           1          29          30          31
          30           1          30          31          32
          31           1          31          32          33
          32           1          32          33          34
          33           1          33          34          35
          34           1          34          35          36
          35           1          35          36          37
          36           1          36          37          38
          37           1          37          38          39
          38           1          38          39          40
          39           1          39          40          41
          40           1          40          41          42
          41           1          41          42          43
          42           1          42          43          44
          43           1          43          44          45
          44           1          44          45          46
          45           1          45          46          47
          46           1          46          47          48
          47           1          47          48          49
          48           1          48          49          50
          49           1          49          50          51
          50           1          50          51          52
          51           1          51          52          53
          52           1          52          53          54
          53           1          53          54          55
          54           1          54          55          56
          55           1          55          56          57
          56           1          56          57          58
          57           1          57          58          59
          58           1          58          59          60
          59           1          59          60          61
          60           1          60          61          62
          61           1          61          62          63
          62           1          62          63          64
          63           1          63          64          65
          64           1          64          65          66
          65           1          65          66          67
          66           1          66          67          68
          67           1          67          68          69
          68           1          68          69          70
          69           1          69          70          71
          70           1          70          71          72
          71           1          71          72          73
          72           1          72          73          74
          73           1          73          74          75
          74           1          74          75          76
          75           1          75          76          77
          76           1          76          77          78
          77           1          77          78          79
          78           1          78          79          80
          79           1          79          80          81
          80           1          80          81          82
          81           1          81          82          83
          82           1          82          83          84
          83           1          83          84          85
          84           1          84          85          86
          85           1          85          86          87
          86           1          86          87          88
          87           1          87          88          89
          88           1          88          89          90
          89           1          89          90          91
          90           1          90          91          92
          91           1          91          92          93
          92           1          92          93          94
          93           1          93          94          95
          94           1          94          95          96
          95           1          95          96          97
          96           1          96          97          98
          97           1          99         100         101
          98           1         100         101         102
          99           1         101         102         103
         100           1         102         103         104
         101           1         103         104         105
         102           1         104         105         106
         103           1         105         106         107
         104           1         106         107         108
         105           1         107         108         109
         106           1         108         109         110
         107           1         109         110         111
         108           1         110         111         112
         109           1         111         112         113
         110           1         112         113         114
         111           1         113         114         115
         112           1         114         115         116
         113           1         115         116         117
         114           1         116         117         118
         115           1         117         118         119
         116           1         118         119         120
         117           1         119         120         121
         118           1         120         121         122
         119           1         121         122         123
         120           1         122         123         124
         121           1         123         124         125
         122           1         124         125         126
         123           1         125         126         127
         124           1         126         127         128
         125           1         127         128         129
         126           1         128         129         130
         127           1         129         130         131
         128           1         130         131         132
         129           1         131         132         133
         130           1         132         133         134
         131           1         133         134         135
         132           1         134         135         136
         133           1         135         136         137
         134           1         136         137         138
         135           1         137         138         139
         136           1         138         139         140
         137           1         139         140         141
         138           1         140         141         142
         139           1         141         142         143
         140           1         142         143         144
         141           1         143         144         145
         142           1         144         145         146
         143           1         145         146         147
         144           1         146         147         148
         145           1         147         148         149
         146           1         148         149         150
         147           1         149         150         151
         148           1         150         151         152
         149           1         151         152         153
         150           1         152         153         154
         151           1         153         154         155
         152           1         154         155         156
         153           1         155         156         157
         154           1         156         157         158
         155           1         157         158         159
         156           1         158         159         160
         157           1         159         160         161
         158           1         160         161         162
         159           1         161         162         163
         160           1         162         163         164
         161           1         163         164         165
         162           1         164         165         166
         163           1         165         166         167
         164           1         166         167         168
         165           1         167         168         169
         166           1         168         169         170
         167           1         169         170         171
         168           1         170         171         172
         169           1         171         172         173
         170           1         172         173         174
         171           1         173         174         175
         172           1         174         175         176
         173           1         175         176         177
         174           1         176         177         178
         175           1         177         178         179
         176           1         178         179         180
         177           1         179         180         181
         178           1         180         181         182
         179           1         181         182         183
         180           1         182         183         184
         181           1         183         184         185
         182           1         184         185         186
         183           1         185         186         187
         184           1         186         187         188
         185           1         187         188         189
         186           1         188         189         190
         187           1         189         190         191
         188           1         190         191         192
         189           1         191         192         193
         190           1         192         193         194
         191           1         193         194         195
         192           1         194         195         196
 
Dihedrals
 
           1           1           1           2           3           4
           2           1           2           3           4           5
           3           1           3           4           5           6
           4           1           4           5           6           7
           5           1           5           6           7           8
           6           1           6           7           8           9
           7           1           7           8           9          10
           8           1           8           9          10          11
           9           1           9          10          11          12
          10           1          10          11          12          13
          11           1          11          12          13          14
          12           1          12          13          14          15
          13           1          13          14          15          16
          14           1          14          15          16          17
          15           1          15          16          17          18
          16           1          16          17          18          19
          17           1          17          18          19          20
          18           1          18          19          20          21
          19           1          19          20          21          22
          20           1          20          21          22          23
          21           1          21          22          23          24
          22           1          22          23          24          25
          23           1          23          24          25          26
          24           1          24          25          26          27
          25           1          25          26          27          28
          26           1          26          27          28          29
          27           1          27          28          29          30
          28           1          28          29          30          31
          29           1          29          30          31          32
          30           1          30          31          32          33
          31           1          31          32          33          34
          32           1          32          33          34          35
          33           1          33          34          35          36
          34           1          34          35          36          37
          35           1          35          36          37          38
          36           1          36          37          38          39
          37           1          37          38          39          40
          38           1          38          39          40          41