LAMMPS (16 Mar 2018)
# 1. INITIALIZATION
#allows pair, bond, bending and dihedral interactions
atom_style molecular

  # periodic (video game) boundaries in all cartesian directions
boundary p p s

  # uses real units (instead of units based on pair potential parameters).  List of units used in manual
units real

###########
# 2. ATOM DEFINITION
##########

   ##
   # Read in data from starting configuration file
   ##

#read_data chainconfig.dat

 #use to restart
read_restart RESTART
  orthogonal box = (-400 -400 -0.0371648) to (400 400 123.895)
  1 by 1 by 1 MPI processor grid
  196 atoms
  194 bonds
  192 angles
  190 dihedrals
  2 = max # of 1-2 neighbors
  2 = max # of 1-3 neighbors
  4 = max # of 1-4 neighbors
  6 = max # of special neighbors

   ##
   # Specify the nature of the bond interactions
   ##


bond_style harmonic
bond_coeff 1 450 1.54

special_bonds lj 0.0 0.0 0.0 angle no dihedral no

angle_style harmonic
angle_coeff 1 62.1  114.00

dihedral_style opls
dihedral_coeff * 1.4110 -0.2708 3.143 0.0

mass * 14.0

pair_style lj/cut 14.0
pair_coeff 1 1 0.0912 3.95 14.0
#pair_modify tail yes

group twistables type 3
6 atoms in group twistables
group freeze type 2
6 atoms in group freeze
fix startend freeze setforce 0.0 0.0 0.0
fix startend0 twistables setforce 0.0 0.0 0.0

################
# 3.  Simulation Settings
###############

neighbor        2.0 bin
neigh_modify    every 1 delay 0 check yes



# Define some variables
variable Lx          equal xhi-xlo   # Ang
variable Ly          equal yhi-ylo   # Ang
variable Lz          equal zhi-zlo   # Ang

variable dz          equal ${Lz}/30  # Ang
variable dz          equal 123.93194371632/30  

variable zzlo        equal zlo+0.05  # Ang
variable zzhi        equal zhi  # Ang
variable vol         equal ${Lx}*${Ly}*${Lz}  # Ang^3
variable vol         equal 800*${Ly}*${Lz}  
variable vol         equal 800*800*${Lz}  
variable vol         equal 800*800*123.93194371632  
variable TEMP        equal 300.00 # K
variable TThi        equal 320.00 # K
variable TTlo        equal 280.00 # K
variable dt          equal 1.25 # fs

timestep     ${dt}
timestep     1.25

variable zlo1      equal ${zzlo}+2.7
variable zlo1      equal 0.0128352418400019+2.7
variable zlo2      equal ${zzlo}+8.4
variable zlo2      equal 0.0128352418400019+8.4
variable zhi1      equal ${zzlo}+115.5
variable zhi1      equal 0.0128352418400019+115.5
variable zhi2      equal ${zzlo}+121
variable zhi2      equal 0.0128352418400019+121

# heat layers

region          hot  block  INF INF INF INF ${zlo1} ${zlo2}
region          hot  block  INF INF INF INF 2.71283524184 ${zlo2}
region          hot  block  INF INF INF INF 2.71283524184 8.41283524184
region          cold block INF INF INF INF ${zhi1} ${zhi2}
region          cold block INF INF INF INF 115.51283524184 ${zhi2}
region          cold block INF INF INF INF 115.51283524184 121.01283524184
compute         Thot all temp/region hot
compute         Tcold all temp/region cold


# 1st equilibration run
fix             1 all nvt temp ${TEMP} ${TEMP} 50
fix             1 all nvt temp 300 ${TEMP} 50
fix             1 all nvt temp 300 300 50
thermo          100
run             8000
Neighbor list info ...
  update every 1 steps, delay 0 steps, check yes
  max neighbors/atom: 2000, page size: 100000
  master list distance cutoff = 16
  ghost atom cutoff = 16
  binsize = 8, bins = 100 100 16
  1 neighbor lists, perpetual/occasional/extra = 1 0 0
  (1) pair lj/cut, perpetual
      attributes: half, newton on
      pair build: half/bin/newton
      stencil: half/bin/3d/newton
      bin: standard
Per MPI rank memory allocation (min/avg/max) = 9.689 | 9.689 | 9.689 Mbytes
Step Temp E_pair E_mol TotEng Press Volume 
   20000            0    225.50431    1494.3508    1719.8551   -4.7785073     79316447 
   20100     218.1902    222.44165    1453.2995    1802.5659   -4.7428099     79316447 
   20200    334.07261    253.94826    1461.2338    1909.3645   -4.6236074     79316447 
   20300    330.39951    228.68913    1474.8054    1895.5419   -4.8822748     79316447 
   20400    293.34074    230.62766    1492.1259    1893.2602   -4.8493589     79316447 
   20500    329.33762    218.49269    1505.5028    1915.4256   -4.8965996     79316447 
   20600    283.32246     234.1445    1485.1828    1884.0108    -4.796131     79316447 
   20700    315.55366    254.22684    1478.6443    1916.2892   -4.6930039     79316447 
   20800    269.83045    232.74728    1488.3183    1877.9067   -4.7210027     79316447 
   20900     307.8643     231.8589     1493.188    1903.9955   -4.6996443     79316447 
   21000     282.2439    229.72957    1510.0521    1903.8382   -4.7753316     79316447 
   21100    290.32225    249.10168    1473.8531    1891.7069    -4.773864     79316447 
   21200    332.87516    236.80297    1483.8213    1914.1106   -4.9547255     79316447 
   21300    304.70129    234.32904    1477.1486    1888.5877   -4.8998981     79316447 
   21400    305.44166    229.95486    1504.1198     1911.615   -4.8239709     79316447 
   21500    272.38416    243.51601    1473.2436    1875.0851    -4.563085     79316447 
   21600    315.43188    234.06628     1490.633    1908.0466    -4.654302     79316447 
   21700    328.88978    240.18649    1473.5577     1904.914   -4.8166326     79316447 
   21800    284.43845    229.13585    1479.9362    1874.4042   -4.9334603     79316447 
   21900    284.95372    229.29788     1506.301    1901.2305   -4.9220834     79316447 
   22000    311.11596     232.0632    1497.0449    1909.9467   -4.7880974     79316447 
   22100    301.53616    258.61241    1481.5978    1915.4805    -4.545301     79316447 
   22200    284.92114    241.26108    1471.0036    1877.8774   -4.6061335     79316447 
   22300    324.29272    217.37098    1503.6188    1909.4875   -4.9282002     79316447 
   22400    290.90117    224.07521    1503.0328    1896.1967   -4.8710418     79316447 
   22500    353.22463    255.09265    1464.2274    1924.6347   -4.6887428     79316447 
   22600    291.85338    243.98225    1476.8445    1890.4688   -4.8570684     79316447 
   22700    298.76419    231.52097    1495.9634    1901.1434   -4.8470112     79316447 
   22800    311.07795    233.61744    1496.1738    1910.6078    -4.790198     79316447 
   22900    286.89488    238.16761    1472.3936    1877.3212   -4.6617076     79316447 
   23000    290.90888    249.41213    1494.1431    1912.6484   -4.5960666     79316447 
   23100    294.14911    223.13777     1509.893    1904.0073    -4.863756     79316447 
   23200    283.61604    227.33029    1492.0639    1884.2483   -4.9252516     79316447 
   23300    314.67573    234.75968    1489.1476     1906.815   -4.8619314     79316447 
   23400     298.2859    257.49856    1454.1162    1884.9958   -4.4878208     79316447 
   23500    331.54256    226.70753    1497.0585    1916.4778   -4.6991278     79316447 
   23600    280.66772    239.89262    1490.5993    1893.6323   -4.7253859     79316447 
   23700    300.72382    229.89704    1521.4284    1926.1236   -4.9434988     79316447 
   23800    278.77993    219.93336    1504.2441    1886.2205   -4.9581877     79316447 
   23900    284.64833    243.61786    1487.4556    1896.5276   -4.7683638     79316447 
   24000    317.21271    243.05833    1485.6222    1913.0629   -4.5350681     79316447 
   24100    282.51041    230.23509     1491.253    1885.6995   -4.7147004     79316447 
   24200    330.78655    226.45238    1501.9748    1920.6995   -4.8615303     79316447 
   24300    295.59327    234.72274    1485.3888    1891.9275   -4.8393911     79316447 
   24400    302.92658    240.68166     1480.111    1896.8712   -4.8305609     79316447 
   24500    303.46238    247.91917    1498.1979     1922.507   -4.7696127     79316447 
   24600    311.58765    237.61649    1480.7586    1899.4879    -4.673475     79316447 
   24700    288.87197    247.38567    1487.7418    1903.0366    -4.678708     79316447 
   24800    288.19768    245.71224    1499.1912    1912.4207   -4.7032708     79316447 
   24900    263.22172    243.90033    1491.9544    1888.8544   -4.7357723     79316447 
   25000    309.18929    231.34685    1496.9235    1907.9891   -4.7438685     79316447 
   25100    283.18426    228.06454    1484.6931    1877.3607   -4.7932091     79316447 
   25200    307.52735    244.12387    1485.6592    1908.5358   -4.7254969     79316447 
   25300    299.88417    229.25015    1472.5015    1876.0617   -4.7687995     79316447 
   25400    273.63458    242.67034    1495.2894     1897.012   -4.7439849     79316447 
   25500      307.456    240.71793    1493.4011    1912.8303    -4.722825     79316447 
   25600    265.30698    241.57731    1480.3166    1876.1057   -4.6878205     79316447 
   25700    291.69424     239.2115    1498.0068    1906.7679   -4.8314316     79316447 
   25800    323.31255    233.59838    1474.7951    1896.3215   -4.8166507     79316447 
   25900    344.10007     217.9482    1500.8088    1918.7679   -4.7802958     79316447 
   26000    310.22066    232.19416    1477.6106     1890.123   -4.7406209     79316447 
   26100    316.77255    237.09786    1484.4448    1905.6692   -4.8358362     79316447 
   26200    285.67482    245.95544    1505.5116    1917.5178   -4.7928154     79316447 
   26300    305.84704    236.50847    1477.6647    1891.9492   -4.6553847     79316447 
   26400    309.85494    247.78998    1486.9829    1914.8786   -4.6305598     79316447 
   26500    283.99149     237.7114    1480.5375    1883.3212   -4.7794055     79316447 
   26600    298.59884    231.63946    1495.7114    1900.9139   -4.9229874     79316447 
   26700    279.55865    223.96558    1507.1403    1893.6016   -4.9378734     79316447 
   26800    299.89877       239.97    1483.6169    1897.9055   -4.7909407     79316447 
   26900    315.84704    229.73137    1505.7848    1919.1048   -4.7012785     79316447 
   27000    323.08053    237.66698    1468.3447    1893.8048   -4.5765786     79316447 
   27100    302.33258    238.69861    1495.5574    1909.9893   -4.7379538     79316447 
   27200    264.30638    230.76691    1500.2618    1884.6589    -4.956209     79316447 
   27300    306.74378    260.84606     1478.804    1917.9474   -4.7394427     79316447 
   27400     286.1941     243.1397    1485.5348    1895.0271   -4.7185958     79316447 
   27500    282.99448    213.14758    1524.6014    1902.2418   -4.8286105     79316447 
   27600    322.72037    225.29883    1530.4802    1943.3628    -4.833103     79316447 
   27700    325.71776    243.91138    1468.7875    1902.0249   -4.6834601     79316447 
   27800    306.13816    256.29996    1453.1012    1887.3464   -4.7317709     79316447 
   27900    330.28157    210.44289    1513.7216    1916.1433   -5.0371537     79316447 
   28000    277.25466    231.84406    1503.0223    1896.0229   -4.7420234     79316447 
Loop time of 2.04164 on 1 procs for 8000 steps with 196 atoms

Performance: 423.190 ns/day, 0.057 hours/ns, 3918.426 timesteps/s
100.0% CPU use with 1 MPI tasks x no OpenMP threads

MPI task timing breakdown:
Section |  min time  |  avg time  |  max time  |%varavg| %total
---------------------------------------------------------------
Pair    | 0.72836    | 0.72836    | 0.72836    |   0.0 | 35.68
Bond    | 1.2019     | 1.2019     | 1.2019     |   0.0 | 58.87
Neigh   | 0.016087   | 0.016087   | 0.016087   |   0.0 |  0.79
Comm    | 0.0050144  | 0.0050144  | 0.0050144  |   0.0 |  0.25
Output  | 0.0010133  | 0.0010133  | 0.0010133  |   0.0 |  0.05
Modify  | 0.071789   | 0.071789   | 0.071789   |   0.0 |  3.52
Other   |            | 0.01747    |            |       |  0.86

Nlocal:    196 ave 196 max 196 min
Histogram: 1 0 0 0 0 0 0 0 0 0
Nghost:    0 ave 0 max 0 min
Histogram: 1 0 0 0 0 0 0 0 0 0
Neighs:    3900 ave 3900 max 3900 min
Histogram: 1 0 0 0 0 0 0 0 0 0

Total # of neighbors = 3900
Ave neighs/atom = 19.898
Ave special neighs/atom = 5.87755
Neighbor list builds = 37
Dangerous builds = 0
velocity        all scale ${TEMP}
velocity        all scale 300
unfix           1

# Second Equilibration
fix             1 all nve
fix             hot all langevin ${TThi} ${TThi}  50.0 599804  tally yes
fix             hot all langevin 320 ${TThi}  50.0 599804  tally yes
fix             hot all langevin 320 320  50.0 599804  tally yes
fix             cold all langevin ${TTlo} ${TTlo} 50.0 27859 tally yes
fix             cold all langevin 280 ${TTlo} 50.0 27859 tally yes
fix             cold all langevin 280 280 50.0 27859 tally yes
fix_modify      hot temp Thot
fix_modify      cold temp Tcold


variable        tdiff equal c_Thot-c_Tcold
thermo_style    custom step c_Thot c_Tcold f_hot f_cold v_tdiff
thermo          4000
run             1600000
Per MPI rank memory allocation (min/avg/max) = 10.44 | 10.44 | 10.44 Mbytes
Step c_Thot c_Tcold f_hot f_cold v_tdiff 
   28000    505.80485    370.42904           -0           -0    135.37581 
   32000    349.96809    422.67512   -3.6259134    25.903079    -72.70703 
   36000    316.49574    312.75177   -1.2595373    12.578941    3.7439771 
   40000    512.94769    325.40139   -26.533613    47.702544     187.5463 
   44000     409.3349     221.7389   -36.108286    61.949808      187.596 
   48000    287.57587    288.43153   -52.931917    80.484015  -0.85566127 
   52000    350.02344    251.06464    -82.57087    102.95791    98.958803 
   56000    411.04115    177.38579   -90.368174    118.54805    233.65536 
   60000    458.33279    397.11133   -76.535016    114.52524    61.221458 
   64000    255.78892    277.77799   -101.82899    114.56283   -21.989078 
   68000     349.1576    282.28602   -108.25578    142.08943    66.871575 
   72000    408.14119    282.15711    -129.3203    144.50721    125.98408 
   76000    233.44881     295.0922   -132.33926     163.1153   -61.643389 
   80000    266.13797    473.42247   -163.23054     212.3053    -207.2845 
   84000    230.13703    518.69423   -195.78094    224.97438    -288.5572 
   88000    366.81297    335.53043    -202.4667    252.55329    31.282537 
   92000    336.50114    524.06458   -253.84255    260.95326   -187.56344 
   96000    226.87602    306.83005   -258.17092    286.91296   -79.954021 
  100000    252.32071    263.17406   -290.62502    337.41397   -10.853356 
  104000    183.19339    193.48599   -310.78603     350.1797   -10.292598 
  108000    304.65316    398.31561    -349.7987    391.46353   -93.662445 
  112000    469.71413    253.28833   -377.65068    420.49163     216.4258 
  116000    456.05575    444.53985   -385.91141    409.20008    11.515899 
  120000    582.56618    312.99464   -387.16528    426.06989    269.57154 
  124000    302.21916    530.64577   -399.88704    448.51355   -228.42661 
  128000    349.51083    299.09308   -418.83683    471.35974    50.417753 
  132000    269.19834    289.65109   -439.11534     467.7686   -20.452754 
  136000    217.63947    256.56642    -432.2816    492.91729   -38.926957 
  140000    337.49088     460.4549    -442.3668    494.55521   -122.96402 
  144000    345.03335    198.57419   -439.63617    475.69125    146.45916 
  148000    555.33527    344.10149   -449.95528    480.02654    211.23378 
  152000    408.66323    252.13047   -450.13765    479.13136    156.53276 
  156000    387.61201    340.48334   -473.48715    504.08265    47.128674 
  160000    423.04371    274.69409   -506.98855    521.89395    148.34962 
  164000    293.12069    214.87977   -521.19435    543.19722    78.240928 
  168000    220.09637    289.23413   -536.59438    572.79284   -69.137762 
  172000     515.3741    277.21611   -534.85957    569.96269    238.15799 
  176000    318.76492    500.17089   -516.81367    554.18728   -181.40597 
  180000    419.24507    376.68314   -534.62031    569.75787    42.561924 
  184000    426.12705    398.65652   -566.05126    594.06767     27.47053 
  188000    288.89543    290.86535   -573.58184     610.2969   -1.9699192 
  192000    215.61539     291.3095   -602.84678    631.54267   -75.694107 
  196000    310.87256    358.33299   -603.61545    650.27003   -47.460429 
  200000    259.16538    425.48139   -661.11487    683.02579   -166.31601 
  204000    296.48008    507.44272   -674.48681     699.1664   -210.96264 
  208000    280.20921    272.19275    -684.9461    697.90729     8.016457 
  212000    336.73248    396.52787   -692.18729      723.306   -59.795389 
  216000    327.28838     427.7806   -729.08607    771.80483   -100.49221 
  220000    371.82546    288.58693   -753.09437     806.9508    83.238521 
  224000    262.15514    226.73357   -795.23243    838.79208    35.421574 
  228000    190.03275    292.67466   -831.85502    863.14832   -102.64191 
  232000    376.91428     357.7183   -841.91305    868.41343     19.19598 
  236000    385.52927    389.09589   -849.08397    884.26448   -3.5666187 
  240000    586.08097    291.31864   -871.79429    886.77783    294.76233 
  244000    163.14172    264.21614   -864.79054    894.38246   -101.07442 
  248000    344.99064    361.36493   -874.55615      918.643   -16.374294 
  252000    477.91676    197.71225   -902.24875    932.37466    280.20451 
  256000    530.60173    339.25068   -905.35982    947.73223    191.35104 
  260000    546.20943    533.38894   -924.56567    953.35804    12.820489 
  264000    301.11548    329.46021   -947.81534     975.1377   -28.344726 
  268000    184.53799    478.81745   -971.05478    1004.4047   -294.27946 
  272000    269.57291     272.0686   -975.49989    1007.0052   -2.4956877 
  276000    396.51887     308.7962     -1002.24    1031.0454    87.722669 
  280000     153.9902    413.67774   -1024.6923    1039.8787   -259.68755 
  284000    457.73215    218.08884   -1047.9842    1068.5297    239.64331 
  288000    253.43211    400.27326   -1055.9732    1078.8522   -146.84115 
  292000     358.7815    434.18426   -1086.0037    1111.6951   -75.402763 
  296000    401.33438    261.83034   -1079.3402     1128.977    139.50404 
  300000     347.1108    414.16869   -1085.6275    1119.1188   -67.057888 
  304000    426.27754    342.96977   -1101.5891    1125.5339    83.307776 
  308000    245.14599    464.87746   -1112.4795    1144.5536   -219.73147 
  312000    265.22665    374.50681   -1167.1181    1202.2541   -109.28015 
  316000    325.29248    278.46775   -1181.9711    1240.6719    46.824724 
  320000     316.1829    287.99898   -1218.7925    1227.7657    28.183918 
  324000    603.09055    276.76114   -1242.4686    1242.7597    326.32941 
  328000    388.70114    265.49841   -1250.0134    1295.5083    123.20273 
  332000    474.97781    351.23817   -1293.4604    1321.9043    123.73964 
  336000    232.96321    241.94632   -1285.0013    1343.0015   -8.9831123 
  340000    235.63845    257.86363   -1295.9972    1329.5884   -22.225185 
  344000     415.1453    246.27299   -1332.7306     1350.785    168.87231 
  348000    258.78037    302.54738   -1338.4501    1385.5306   -43.767002 
  352000    338.02704    387.72554   -1382.7622    1401.1004   -49.698501 
  356000    255.92393    427.60275   -1397.2429    1428.3397   -171.67882 
  360000    324.59339    360.50566   -1400.3142    1451.0793   -35.912268 
  364000    220.33309    391.98289   -1415.0123    1455.9004   -171.64979 
  368000    373.77545    313.42874   -1443.5501    1486.7719    60.346713 
  372000    528.57135    537.93921     -1476.67    1507.6869   -9.3678528 
  376000    228.98231    303.05908   -1489.4431     1534.653   -74.076772 
  380000    276.99451    399.25417   -1506.9843    1528.8271   -122.25967 
  384000    431.62529    248.19118   -1507.9856    1535.9682    183.43411 
  388000    401.98538    520.55593   -1531.8777    1561.8444   -118.57055 
  392000    437.54244     303.0724   -1576.0022    1600.6817    134.47004 
  396000    133.13937    407.71733   -1598.3118    1618.4515   -274.57796 
  400000    489.38988    257.67751   -1625.3832    1648.1864    231.71237 
  404000     340.8905    432.50768   -1647.5759     1684.635   -91.617186 
  408000    283.80154    341.75011   -1668.0989    1712.3289   -57.948573 
  412000    277.50178    278.97687   -1681.1414    1720.0052   -1.4750927 
  416000    294.32728    294.05431   -1706.1076    1736.3716   0.27296467 
  420000    386.59351    365.07483   -1725.9431     1750.726    21.518682 
  424000    345.93799    373.98592   -1727.9859    1746.7148   -28.047936 
  428000     375.8128    437.75538   -1745.8236    1778.7641   -61.942587 
  432000    304.20322    311.30829   -1733.1758    1812.4044   -7.1050652 
  436000    371.44361    287.04447   -1760.7735    1786.2552    84.399145 
  440000    548.70011    189.00693   -1801.3328     1819.759    359.69318 
  444000    402.14706    397.91487   -1809.8108    1828.0955    4.2321887 
  448000    407.99118    189.23151   -1838.3016    1872.3691    218.75967 
  452000    282.49459    412.84486   -1844.9833    1881.6245   -130.35027 
  456000     280.9071    387.28687   -1863.4577     1882.486   -106.37977 
  460000    325.93173    268.72128   -1867.8209    1883.0421    57.210447 
  464000    376.59368     157.8574   -1876.1939    1901.7766    218.73628 
  468000    192.21912    217.80635   -1898.7847    1924.4854   -25.587231 
  472000    501.50688    471.32749   -1923.0325    1948.1061    30.179384 
  476000    397.21515    262.69565   -1933.8791    1978.4206     134.5195 
  480000    277.54107     506.2258   -1967.7527    1990.2199   -228.68473 
  484000    295.54093    379.98973   -1974.0525    2001.9684   -84.448795 
  488000    326.15945    334.64583   -1981.9019    2034.1278   -8.4863776 
  492000    342.52903    203.45014   -1999.0473    2040.5967    139.07889 
  496000     427.8917    331.39438   -2056.4176    2058.7472    96.497318 
  500000    289.42533    326.36707   -2061.0194      2092.45    -36.94174 
  504000    372.22283    215.55058   -2094.3889    2115.6877    156.67224 
  508000    415.89144    396.87489   -2108.3647    2139.4852    19.016545 
  512000    308.99574    226.84555   -2134.3334    2164.5506    82.150193 
  516000    417.41974      313.264   -2169.9613    2188.3216    104.15574 
  520000    322.75384    344.72645   -2167.6699     2213.868   -21.972603 
  524000    320.24859      276.431   -2194.2038    2235.2223    43.817586 
  528000    373.05166    324.32438   -2227.9171    2244.8404    48.727284 
  532000    419.36499     391.5546   -2211.5852    2257.5844    27.810386 
  536000    426.16599    202.12887   -2242.5272    2277.2476    224.03712 
  540000    262.47387    335.64333   -2259.6013    2300.5787   -73.169457 
  544000    275.35623    552.04123   -2275.0615    2295.2443   -276.68499 
  548000     332.8352    171.54343   -2285.7558    2305.8526    161.29177 
  552000    196.92556    385.96788    -2292.902    2326.5785   -189.04232 
  556000    471.02112    296.65552   -2312.4798    2356.3508    174.36561 
  560000      307.966    201.94309   -2324.3728    2349.5526    106.02291 
  564000    465.44707    442.11958   -2355.1615     2368.439    23.327486 
  568000    595.34052    408.26221   -2383.8161    2408.2799    187.07831 
  572000    494.71269    294.38779    -2423.395    2446.9302    200.32491 
  576000    390.03436    268.00368   -2454.2111    2482.8603    122.03068 
  580000    398.86494    330.23489   -2446.1264     2480.721    68.630046 
  584000    241.81095    162.99101   -2455.0051    2504.1807    78.819942 
  588000    384.76782    188.61771   -2477.2006    2508.2645     196.1501 
  592000    314.09698    409.43579   -2512.2557    2539.7704   -95.338813 
  596000    254.24613    344.36218   -2516.3352    2562.8508   -90.116057 
  600000    534.35814    201.43498   -2564.5984    2585.9415    332.92316 
  604000    365.19378    202.51391   -2570.7565     2588.216    162.67987 
  608000    296.82724    302.08229    -2570.461    2623.4204   -5.2550516 
  612000    527.15599    438.27713    -2586.452    2630.7734    88.878859 
  616000    324.15571    236.01904   -2624.4694    2669.5332    88.136676 
  620000    271.17585     501.4956   -2650.4615     2673.182   -230.31975 
  624000    420.55757    375.09952   -2685.0358    2716.9646    45.458052 
  628000    554.29082    296.75662   -2686.3243    2716.3044     257.5342 
  632000    317.60977    389.15098   -2685.4621    2709.2951    -71.54121 
  636000    252.53976    282.49523     -2688.44    2738.0497   -29.955471 
  640000     311.4165    506.42227   -2691.6171    2732.9414   -195.00577 
  644000     341.1559     347.1998   -2728.8581    2741.3709   -6.0438963 
  648000    200.91838    406.94503   -2741.8633    2770.3119   -206.02665 
  652000    336.15938    282.09673   -2746.6976     2783.528    54.062646 
  656000    228.31852    280.50235   -2755.2432    2787.9495   -52.183828 
  660000    485.11208    396.70261   -2758.9928    2800.7026    88.409472 
  664000     429.3872    295.82589   -2777.5621    2815.1131    133.56132 
  668000    409.51911    433.76004   -2773.4111    2817.1205   -24.240937 
  672000    431.17477    383.15294   -2787.7639    2826.0314    48.021838 
  676000    381.26254    291.41987   -2818.4652    2837.0793    89.842675 
  680000    203.44784    311.31507    -2832.774    2868.3701   -107.86723 
  684000    335.71461    284.59577   -2886.1931    2898.8037    51.118842 
  688000    350.70786    269.49184   -2907.9389    2939.9237    81.216017 
  692000    226.41177    287.41688   -2945.2139    2935.5665   -61.005116 
  696000    329.51486    267.05953   -2939.4262    2937.8688    62.455328 
  700000    428.64348    358.35074   -2914.1506    2957.8133    70.292742 
  704000    255.86602    555.98386   -2925.6311    2970.8157   -300.11784 
  708000    270.72369    221.53841   -2918.2254    2970.2826    49.185274 
  712000    330.74259    511.09995   -2945.6668    2974.3401   -180.35736 
  716000    194.38815    210.62287   -2960.0689    2976.5472   -16.234713 
  720000    352.72134    333.60398   -2994.7459     2993.036    19.117359 
  724000    318.20236    426.26885   -2994.0577    3034.9467   -108.06649 
  728000    257.34091    197.61741   -3029.4914    3054.4742    59.723502 
  732000    305.00103    422.62126   -3052.8888     3072.946   -117.62023 
  736000    454.86053    520.74118   -3074.3498    3110.0795   -65.880642 
  740000    330.15322    381.69563   -3095.2764    3115.0692   -51.542407 
  744000    322.13517    192.30713   -3110.8922    3150.6134    129.82804 
  748000    331.00568    441.52682    -3137.293    3168.6969   -110.52113 
  752000    317.08384     266.1644   -3154.9276     3182.493    50.919439 
  756000    455.87642    286.49434   -3160.3782    3195.5422    169.38208 
  760000    399.58774    356.12578   -3152.0429    3198.5108    43.461965 
  764000    483.60361    335.08411   -3161.4042    3208.7881    148.51949 
  768000     331.6448    274.03775   -3211.0796    3248.1446     57.60705 
  772000    369.94163    280.39228   -3256.1201    3270.7197    89.549348 
  776000    444.05131    333.72509   -3264.6076     3265.366    110.32622 
  780000    151.72038    319.87872    -3232.962    3286.6125   -168.15835 
  784000    326.37952    341.47557   -3253.9446    3285.1378   -15.096048 
  788000    199.10182    429.92817   -3283.8991    3298.5825   -230.82635 
  792000    260.74305    376.46914   -3269.6914    3305.2404   -115.72609 
  796000     577.3539    215.88814   -3284.6032    3317.2189    361.46576 
  800000    596.14638     336.2128   -3299.2948    3329.1531    259.93358 
  804000    334.03269     310.7924   -3322.8852    3346.3938    23.240287 
  808000      248.328    486.43832   -3316.7149    3361.9104   -238.11032 
  812000     287.8013    564.41889   -3341.7357    3369.9668   -276.61759 
  816000    265.29468     250.9668   -3361.7202    3392.8125    14.327886 
  820000    520.37898    330.56379   -3389.4308    3417.6397    189.81519 
  824000    209.53546    423.74018   -3380.1241    3425.5229   -214.20472 
  828000    705.28327    336.61623   -3397.9454    3414.3223    368.66704 
  832000    338.52025    343.70844   -3407.0606    3423.7042   -5.1881934 
  836000    303.74759    397.67717   -3420.3127    3443.3312    -93.92958 
  840000    345.53005    236.24157   -3451.7397    3447.1373    109.28847 
  844000    297.32685    415.97617   -3445.3449     3473.186   -118.64933 
  848000     381.6954    407.72824   -3469.6347     3478.415   -26.032839 
  852000    372.62528    378.64925   -3445.8677    3479.7273   -6.0239662 
  856000    250.76897    321.15228   -3462.1168    3504.0072    -70.38331 
  860000    399.66124    363.88829   -3467.0955    3506.5898     35.77295 
  864000      315.233    280.80793   -3487.6075     3506.128    34.425064 
  868000    206.19516    268.38269    -3516.284    3541.2702   -62.187532 
  872000    319.67641    345.36247   -3508.2753    3525.5583   -25.686054 
  876000    408.50235    256.85926   -3524.1646    3565.3631    151.64309 
  880000    245.14309    316.35245   -3535.9392    3574.3381    -71.20936 
  884000    306.58883    244.32218   -3544.1432    3576.6689    62.266647 
  888000    254.51606    289.08855   -3560.5585    3593.6257   -34.572498 
  892000    264.56226    209.93318   -3569.8946     3596.313    54.629085 
  896000    402.39455    274.77347   -3595.1342    3624.8027    127.62108 
  900000    342.68269    381.97526    -3617.088    3628.8202   -39.292564 
  904000    370.44441    152.24796   -3622.7338     3674.062    218.19645 
  908000    376.52441    448.20652    -3635.036    3676.6488   -71.682111 
  912000    343.69887    712.00452   -3648.3071    3696.2712   -368.30565 
  916000    338.76405    223.87573   -3680.1851    3695.8356    114.88832 
  920000    468.19166    443.34289   -3684.4245    3709.8022     24.84877 
  924000    378.56243    399.84148   -3718.2125    3745.5161   -21.279048 
  928000    365.18851    307.28276   -3748.0161    3749.7473    57.905757 
  932000    240.01804     246.6923   -3749.8679    3785.3583   -6.6742602 
  936000    378.43341    389.41985   -3774.9293    3792.5553   -10.986436 
  940000    393.87715    319.76897   -3779.5215    3804.3892    74.108184 
  944000    362.01886    333.86521   -3789.6256    3815.1343    28.153651 
  948000     213.0901    213.60608    -3807.558    3846.0509  -0.51598647 
  952000    204.76276    305.05208   -3823.7552    3866.7091   -100.28932 
  956000    389.32996     384.2414   -3857.9031    3897.7319    5.0885619 
  960000    568.46675    214.96896   -3866.8242    3883.6163    353.49779 
  964000    289.44795      381.288    -3874.047    3908.7517   -91.840049 
  968000    425.48516    278.11936   -3892.7949    3931.1907     147.3658 
  972000    409.50718    261.66888   -3928.3555    3946.4241     147.8383 
  976000    199.41437     219.7172   -3924.4688    3957.0292   -20.302837 
  980000    366.18456     236.1158   -3938.8986    3960.0987    130.06876 
  984000    374.05578    186.94059   -3964.5103    3980.1412    187.11519 
  988000    531.72267    409.02863   -3980.2013     3998.696    122.69404 
  992000    353.30868    319.61563   -3967.3609    3994.9019    33.693052 
  996000     351.2599     390.4696   -3991.4238    4007.2822   -39.209697 
 1000000    269.05751    551.32717    -4008.087    4051.3125   -282.26965 
 1004000    308.46099    418.69165   -4024.0664    4065.2344   -110.23066 
 1008000    352.02854    372.45966   -4063.8423     4088.378   -20.431113 
 1012000    445.69572     330.0402   -4094.7293    4102.9357    115.65552 
 1016000    420.50307    504.28222   -4115.9946    4148.7825   -83.779151 
 1020000    330.40513    277.76288   -4117.3864    4134.9378    52.642249 
 1024000      218.252    304.65689   -4129.7917    4140.1024   -86.404887 
 1028000    346.68018    389.30878   -4147.1145    4155.4966   -42.628603 
 1032000    375.76055     240.1736   -4168.6901    4188.3106    135.58694 
 1036000     329.1675    359.10654   -4181.8833    4207.5189   -29.939044 
 1040000    581.40521    273.74502   -4194.3946    4240.5328    307.66019 
 1044000    271.70605    295.87658   -4201.8286    4252.3474   -24.170532 
 1048000    309.72291    217.41292   -4234.2087    4256.2701    92.309988 
 1052000    430.23243     452.4214   -4233.0339    4255.1763    -22.18897 
 1056000    379.29862    445.53042    -4239.646    4265.3715   -66.231795 
 1060000    444.01102     199.9706    -4264.367     4295.125    244.04042 
 1064000    474.31206    286.98704   -4255.5451    4294.5251    187.32502 
 1068000    414.77417    491.68044   -4270.2144    4292.9561   -76.906267 
 1072000    271.06521    259.39844   -4259.4757    4299.8442    11.666771 
 1076000    242.53634    359.86576   -4267.9808    4308.7327   -117.32942 
 1080000    420.90763    391.08409   -4298.4793    4329.1568    29.823537 
 1084000    362.10421    262.58025    -4343.116     4363.787    99.523969 
 1088000    546.04991     298.4645   -4359.8914    4382.8818    247.58541 
 1092000    434.67608    198.16179    -4363.818    4398.1851     236.5143 
 1096000    382.27004    447.37123   -4402.3779      4421.65   -65.101193 
 1100000    151.49317    426.90088   -4432.3789    4461.1425   -275.40771 
 1104000    272.63116    339.64858   -4449.2457     4501.071   -67.017411 
 1108000    437.58223    333.64686    -4468.006     4519.979    103.93536 
 1112000    176.63685    400.34583   -4475.1312    4499.1762   -223.70898 
 1116000    298.83828    299.81429   -4491.6679    4530.3828  -0.97600551 
 1120000    409.64351    620.42075   -4521.4415    4526.5867   -210.77724 
 1124000     385.1015    346.94899   -4537.4991    4547.6198    38.152507 
 1128000    252.76232    394.16317   -4537.2111    4560.9341   -141.40085 
 1132000    305.26448    241.65923   -4529.1178    4557.5485    63.605253 
 1136000    470.42342    215.85798    -4551.776    4592.4026    254.56544 
 1140000    337.51255    481.90735   -4543.0875    4586.1369   -144.39481 
 1144000    247.34754     382.1168   -4547.4572     4582.888   -134.76926 
 1148000    423.44797    360.10832   -4584.0504    4607.1921    63.339646 
 1152000    314.72024    185.91146   -4610.3963    4629.5906    128.80878 
 1156000    482.61701    408.50526   -4603.6945    4635.6155     74.11175 
 1160000     277.2356    471.64571   -4633.6315    4645.8065   -194.41011 
 1164000      460.632    304.18067   -4665.1814    4683.1695    156.45134 
 1168000    365.81567    416.71806   -4651.7199    4678.9555    -50.90239 
 1172000    461.57408     358.7376   -4656.5511     4684.644    102.83649 
 1176000    329.93548    483.40346   -4689.2336    4697.6401   -153.46798 
 1180000    343.51271    373.30468   -4682.1723    4724.6336   -29.791964 
 1184000    390.34702    381.11318   -4687.1689    4732.6275    9.2338389 
 1188000    481.58709    273.81677   -4716.3142    4749.0926    207.77032 
 1192000     290.9682    213.77397   -4724.1772    4749.1999    77.194227 
 1196000    370.06213    284.47426   -4745.5267    4768.0224    85.587864 
 1200000    241.73534      351.008   -4726.8046    4769.5916   -109.27266 
 1204000    282.03075     574.3685   -4741.1344    4796.3303   -292.33775 
 1208000    293.37783    204.97585   -4786.6798    4803.9475    88.401982 
 1212000    177.57674    332.52421   -4792.2378    4828.8402   -154.94747 
 1216000    691.05477    433.56916   -4830.9277    4843.5011    257.48562 
 1220000    257.35611    204.14692   -4858.6319    4875.0792    53.209182 
 1224000    269.80575    370.90948   -4877.4289    4897.4922   -101.10374 
 1228000    323.39452    444.67403   -4885.1907    4910.0111   -121.27951 
 1232000     371.1226    281.84838   -4903.9412    4932.6466    89.274224 
 1236000    472.94714     422.3096   -4902.1502     4924.623    50.637537 
 1240000    274.81913    247.08511   -4925.9407    4939.2289    27.734027 
 1244000    235.93587    273.74201   -4950.5742    4975.2479   -37.806144 
 1248000    490.44559    273.18378   -4959.6515    4983.0721    217.26182 
 1252000    403.17856    290.05635   -4972.4499    4998.9697    113.12221 
 1256000    301.60295    283.96331   -4989.9603    5018.1915    17.639644 
 1260000    294.02212    301.01654   -4997.7616    5045.4546   -6.9944254 
 1264000    281.94881    377.53529   -5017.8139    5053.5595   -95.586481 
 1268000    258.28896     289.0134   -5051.3805    5073.3678   -30.724445 
 1272000    448.34339    305.04868   -5087.2667    5107.4528     143.2947 
 1276000    360.02725    324.07171   -5095.8777    5105.9854    35.955537 
 1280000    470.03929    341.54637   -5094.3338    5139.2424    128.49292 
 1284000    304.68836    113.00953   -5123.9293    5158.5005    191.67883 
 1288000    403.70728    198.40129   -5145.6311    5202.9066    205.30599 
 1292000    472.47267    222.63706   -5182.7136    5227.3085    249.83561 
 1296000    201.17387    182.80906   -5186.9277    5242.6115    18.364815 
 1300000    586.09607    303.69337   -5197.8653    5241.4839     282.4027 
 1304000    216.32638    189.24067   -5196.4266    5260.5708     27.08571 
 1308000    368.66659    347.09677   -5237.3986     5256.683    21.569816 
 1312000    412.27719    165.89561   -5257.5334     5277.406    246.38158 
 1316000    178.49743     286.1068   -5252.9075    5304.7652   -107.60936 
 1320000    455.53074    220.59628   -5262.8567    5306.2459    234.93445 
 1324000    142.07181     317.6471   -5287.1046    5325.8469   -175.57529 
 1328000    301.71149    405.50741    -5298.461    5323.5998   -103.79592 
 1332000    337.92485    234.58662    -5304.281    5352.6608    103.33822 
 1336000    343.98728    231.84269   -5308.7909    5369.4792    112.14459 
 1340000     505.3848    351.98938   -5328.9516    5365.4782    153.39542 
 1344000    460.19915    379.02123   -5334.9221    5378.4438    81.177927 
 1348000    332.32982    400.71607   -5373.1717    5395.6132   -68.386248 
 1352000    432.55478    251.68431   -5368.3185    5403.6115    180.87047 
 1356000     289.2503    268.34996   -5363.4465    5410.4459    20.900346 
 1360000    378.66815    488.59012   -5385.2506    5424.2016   -109.92197 
 1364000     437.6912    332.86537    -5422.059    5448.5472    104.82583 
 1368000    369.03435    355.13367    -5441.524    5489.0227    13.900687 
 1372000    276.82078    329.32237   -5473.0493    5506.0199   -52.501597 
 1376000    456.88455     456.0852   -5498.5311    5509.0274   0.79935052 
 1380000    453.33259    398.59442   -5523.4545    5533.0421    54.738166 
 1384000     658.6976    337.87022   -5522.8482    5557.4648    320.82738 
 1388000    294.55839    357.48055   -5528.8766    5560.1859   -62.922161 
 1392000    261.72944    206.92443   -5563.3093    5609.1283    54.805009 
 1396000    266.82942    379.04937   -5594.0432    5622.8967   -112.21994 
 1400000    424.02278    306.25586   -5625.5016    5665.3387    117.76692 
 1404000    262.61558    458.65027   -5645.7492    5682.5721   -196.03469 
 1408000    347.10641    559.73945   -5666.3924    5695.7882   -212.63304 
 1412000    385.57126    582.71064    -5700.969    5707.9566   -197.13939 
 1416000    332.07716    212.82967   -5680.6348    5747.7703    119.24749 
 1420000    524.19889    420.25331   -5709.2333    5747.7775    103.94559 
 1424000    381.71965    447.22923   -5724.9903    5766.0923   -65.509578 
 1428000     326.2691    237.32396   -5753.9969    5790.1753    88.945136 
 1432000     242.4159    441.86392   -5770.4799    5802.0497   -199.44802 
 1436000    523.41384     314.0745   -5789.7626    5815.4648    209.33934 
 1440000    434.76906    331.50486   -5804.9476    5837.9103     103.2642 
 1444000    484.21734    349.38967   -5808.6379    5857.5852    134.82768 
 1448000      522.073    211.34826   -5845.9153    5887.2559    310.72475 
 1452000    433.99442    349.98269   -5857.7013     5893.008    84.011732 
 1456000    414.17826    351.29016   -5865.0101    5902.8386    62.888099 
 1460000    203.23777     314.2838   -5888.0121    5904.8313   -111.04603 
 1464000    439.27003    270.47412   -5913.6747    5948.9919    168.79591 
 1468000     454.2886    254.39682   -5920.9218    5973.9873    199.89178 
 1472000    281.13621    305.62581   -5950.0708    5980.3261   -24.489592 
 1476000    259.11879    330.89442   -5949.6489    5999.4409   -71.775627 
 1480000    520.23323    363.70358   -5967.7948    6000.2608    156.52965 
 1484000    357.06395    236.76057   -5986.8529    6032.1724    120.30338 
 1488000    182.18121    183.68977   -6006.6106    6057.9184   -1.5085588 
 1492000    461.95311    299.46787    -6043.686    6076.0175    162.48524 
 1496000    378.15588    343.67039   -6059.8111    6104.3383    34.485489 
 1500000    573.95477    212.04416   -6091.4966    6132.3129    361.91061 
 1504000    470.43664    539.49139   -6087.1612    6133.0135    -69.05475 
 1508000    293.49931    292.45557   -6134.3684    6166.2615    1.0437376 
 1512000    294.76533    333.17512   -6124.5728    6155.7102   -38.409788 
 1516000    433.85963    299.85807   -6157.6512    6189.8782    134.00156 
 1520000    420.74095    372.34383   -6183.2998    6202.7672    48.397124 
 1524000     306.8852    254.28178   -6168.5361    6221.2692    52.603414 
 1528000    354.38038    195.81791   -6194.3819    6244.0395    158.56248 
 1532000    444.09148    341.00649    -6214.911    6251.6624    103.08499 
 1536000    263.62244    225.14086   -6238.3902    6284.6668    38.481587 
 1540000     329.0482    375.61174   -6295.3617    6291.4239   -46.563544 
 1544000    306.45096    422.67743   -6287.0254    6301.2264   -116.22647 
 1548000    286.42542    282.47064   -6313.6008    6369.1521    3.9547815 
 1552000    221.10109    269.27843   -6321.6486    6367.6965   -48.177345 
 1556000    385.13674    243.38849   -6336.1513    6384.3048    141.74825 
 1560000    580.03945    236.15983   -6366.9828    6389.3264    343.87961 
 1564000    322.94926    494.24689   -6391.3459    6392.0297   -171.29763 
 1568000    345.06554    278.41454   -6377.1485    6408.9034    66.650998 
 1572000    426.60901    230.98431   -6398.6391    6423.7148     195.6247 
 1576000    609.03953      183.864    -6449.382     6456.784    425.17553 
 1580000     138.9851    399.02476   -6433.2914    6467.6173   -260.03966 
 1584000    434.94552    272.93252   -6447.7178    6494.9712      162.013 
 1588000    450.99972    254.11988   -6489.5836    6507.9535    196.87983 
 1592000    320.69651     251.8506   -6500.5037    6541.9026    68.845903 
 1596000    508.55312    518.11833   -6536.7521    6561.9985   -9.5652076 
 1600000    271.95981    275.49654   -6536.6067    6572.3909   -3.5367361 
 1604000    497.05698    357.77804   -6562.8757    6586.3238    139.27894 
 1608000    409.22677    452.65507   -6581.8167    6601.9269   -43.428301 
 1612000    218.61169    324.94818   -6602.2555    6610.6704   -106.33649 
 1616000    584.21796    327.23475   -6626.1454    6647.7281    256.98321 
 1620000    239.10144     404.7204   -6627.1473    6673.0739   -165.61896 
 1624000    308.48452    292.94522   -6657.8561    6711.2456    15.539303 
 1628000    191.52358    279.16925   -6684.7896    6722.6061   -87.645674 
Loop time of 493.188 on 1 procs for 1600000 steps with 196 atoms

Performance: 350.373 ns/day, 0.068 hours/ns, 3244.197 timesteps/s
100.0% CPU use with 1 MPI tasks x no OpenMP threads

MPI task timing breakdown:
Section |  min time  |  avg time  |  max time  |%varavg| %total
---------------------------------------------------------------
Pair    | 149.65     | 149.65     | 149.65     |   0.0 | 30.34
Bond    | 246.82     | 246.82     | 246.82     |   0.0 | 50.05
Neigh   | 3.2238     | 3.2238     | 3.2238     |   0.0 |  0.65
Comm    | 1.0812     | 1.0812     | 1.0812     |   0.0 |  0.22
Output  | 0.011434   | 0.011434   | 0.011434   |   0.0 |  0.00
Modify  | 89.147     | 89.147     | 89.147     |   0.0 | 18.08
Other   |            | 3.255      |            |       |  0.66

Nlocal:    196 ave 196 max 196 min
Histogram: 1 0 0 0 0 0 0 0 0 0
Nghost:    0 ave 0 max 0 min
Histogram: 1 0 0 0 0 0 0 0 0 0
Neighs:    3898 ave 3898 max 3898 min
Histogram: 1 0 0 0 0 0 0 0 0 0

Total # of neighbors = 3898
Ave neighs/atom = 19.8878
Ave special neighs/atom = 5.87755
Neighbor list builds = 7192
Dangerous builds = 0
unfix 1


# PRODUCTION

fix             1 all nve
fix             hot all langevin ${TThi} ${TThi}  50.0 52804  tally yes
fix             hot all langevin 320 ${TThi}  50.0 52804  tally yes
fix             hot all langevin 320 320  50.0 52804  tally yes
fix             cold all langevin ${TTlo} ${TTlo} 50.0 297859 tally yes
fix             cold all langevin 280 ${TTlo} 50.0 297859 tally yes
fix             cold all langevin 280 280 50.0 297859 tally yes
fix_modify      hot temp Thot
fix_modify      cold temp Tcold


variable        tdiff equal c_Thot-c_Tcold
thermo          4000

dump gigo all atom 40000 dump.cords_xyz.dat
dump_modify gigo scale no
dump vfgigo all custom 4000 dump.velo.dat id vx vy vz fx fy fz

# thermal conductivity calculation
# # reset langevin thermostats to zero energy accumulation
#
compute         ke all ke/atom
variable        temp atom c_ke/1.5/0.0019872

fix             ave all ave/time 100 40 4000 v_tdiff ave running
thermo_style    custom step temp c_Thot c_Tcold f_hot f_cold v_tdiff f_ave

#compute         layers all chunk/atom bin/1d z lower 0.05 units reduced
compute         layers all chunk/atom bin/1d z lower ${dz} units box
compute         layers all chunk/atom bin/1d z lower 4.131064790544 units box
fix             2 all ave/chunk  100 40 4000 layers v_temp file profile.langevin

dump mydump2 all xyz 40000 prod-coord.xyz
dump_modify mydump2 element C S S

run             32000000
Per MPI rank memory allocation (min/avg/max) = 11.82 | 11.82 | 11.82 Mbytes
Step Temp c_Thot c_Tcold f_hot f_cold v_tdiff f_ave 
 1628000     279.1265    191.52358    279.16925           -0           -0   -87.645674            0 
 1632000    296.88212    446.16259    325.91551     -33.9831     19.45138    120.24709    20.607031 
 1636000    304.01444    567.73883    198.62031   -38.753795    25.172717    369.11852    25.298562 
 1640000    300.96984    486.26878    338.00079   -62.060352    27.230695    148.26799    21.801152 
 1644000    298.15389    335.27277    204.55043   -76.133343    46.120542    130.72234     21.74409 
 1648000    298.42451    369.04534     279.3116   -101.69488    79.119967    89.733743    22.767752 
 1652000     282.5878    249.75712    385.43713   -96.500398    97.523804   -135.68001    24.712069 
 1656000    266.61023    371.88342    280.31205   -116.73817    119.26561    91.571368    28.829877 
 1660000    266.99785    449.61378    282.47976   -141.68886    148.62885    167.13401     33.88909 
 1664000    281.45278    218.43386    262.80419   -182.67762    158.17288   -44.370336    36.024361 
 1668000    294.78083    556.73347    512.85746   -200.38616    184.06038    43.876008    35.956159 
 1672000    270.18264    272.21302    337.81336   -210.96196    213.38536   -65.600339    36.251466 
 1676000    324.17969    384.99744    503.05983   -260.62631    217.61459   -118.06239    34.723295 
 1680000    296.43315     193.3796    356.36273     -284.586    277.59987   -162.98313    34.380066 
 1684000    266.50203    341.60842     187.0944   -288.49539    304.81989    154.51402    34.168038 
 1688000    261.98713    330.88558    422.48833   -322.59916    333.24931   -91.602746    34.128834 
 1692000    274.43271    300.26746    368.23071   -351.05881    358.88144   -67.963251    35.106338 
 1696000    273.02064    518.14946    331.28376   -379.44234    363.82019     186.8657    34.637485 
 1700000    293.31735    293.83934    234.15345   -388.19648    375.83556    59.685892    36.818573 
 1704000    268.74641    297.14219    316.06423   -384.70298    382.89715   -18.922038    35.969172 
 1708000     292.3308    369.15029    422.92919   -389.60821    368.15766   -53.778899    35.177743 
 1712000    281.13789     419.5138    351.86932   -413.89949     404.4266    67.644473    34.888995 
 1716000    299.98089    264.42628     334.6593   -428.74923    419.58559   -70.233021    36.401817 
 1720000    280.79227     315.4867    200.95708   -456.68682    445.36082    114.52962    35.081155 
 1724000    260.69978    451.12502    207.62301   -452.24661    456.80973    243.50201    34.987163 
 1728000    269.08725    316.51969    270.05618   -456.98665    459.93416    46.463509    35.343031 
 1732000    295.07964     305.1342    349.92879   -477.83316    464.57176   -44.794584    34.835515 
 1736000    292.80998    773.35309    342.24384   -489.41068    476.74455    431.10925    35.404915 
 1740000    282.61095    491.37583    268.78145   -501.65414    480.14975    222.59438    35.871267 
 1744000    268.76244    273.65594    381.11615   -514.61858    506.10931   -107.46022    36.397226 
 1748000    281.44062    305.11884    288.99294   -548.61516    558.10303    16.125898    35.891854 
 1752000    280.60522    240.17135    333.33418   -564.01922    570.19003   -93.162828    34.775558 
 1756000    278.78235    318.14551    253.58895     -574.133    580.06961    64.556556    35.001434 
 1760000    291.56546    452.12474    396.22774   -586.89254    560.25664    55.896995    35.147089 
 1764000    265.37495    358.06987    240.51022   -601.89547    608.35026    117.55964    34.065437 
 1768000    286.60011    393.24641     283.8383   -603.67374    604.89564    109.40811    34.782131 
 1772000    276.65184    498.58118    187.55727   -614.28992    617.24132     311.0239    34.669959 
 1776000    272.36949    338.41146     364.9406   -628.34306    627.47595   -26.529134    33.679939 
 1780000    312.16545    485.16936    323.71108     -640.581    619.89933    161.45827     34.96548 
 1784000    284.14255    208.72737    316.27405   -642.39095    624.73704   -107.54668    34.250709 
 1788000    262.36242    399.93836    238.22726   -628.25392    626.34568     161.7111    34.059251 
 1792000    289.96892    252.60202    404.14247   -649.41738    639.10657   -151.54046      33.5304 
 1796000    276.79949    425.18859    332.73716   -657.23402    649.69717    92.451433    32.915769 
 1800000    312.11672    464.79452    419.07341   -690.24573    679.01544    45.721106    33.672275 
 1804000    290.56355    242.67889      432.824   -701.66274    691.73109   -190.14511     33.40551 
 1808000    284.16223    333.22918    261.33942   -715.40759    700.65424    71.889766    32.644235 
 1812000    281.47898    279.03464    333.50435   -725.79115    725.43268   -54.469719    32.987696 
 1816000    304.43733    297.42003    383.60949   -772.88791    751.17212   -86.189456    33.735076 
 1820000    258.79641    327.25987    277.16715   -773.39486    777.97466    50.092725     33.89736 
 1824000    285.58464    332.75149     320.6673   -775.31028    779.51646    12.084192    34.091384 
 1828000    298.63074    410.06663    406.97779   -811.00306    790.15369    3.0888352    34.034438 
 1832000    283.86026    468.27697    265.34984   -827.51583    839.07932    202.92713    33.637295 
 1836000    249.07545    241.52308    256.68006   -833.85282    861.83571   -15.156978    33.821126 
 1840000    256.34001    328.56936    343.75326    -865.1347    868.76666     -15.1839    33.322438 
 1844000    260.00745    494.14651    386.18897   -868.22738    877.26333    107.95754    33.941213 
 1848000      264.203    414.31986    229.84898   -909.59026    924.54948    184.47088    34.318051 
 1852000    303.32225    521.88925    246.02151   -930.07297     910.6568    275.86774    33.858278 
 1856000     291.1678    345.10445    377.82257   -947.37212    946.32896   -32.718123    33.534176 
 1860000    302.68119     256.9977    527.61724   -986.94723    960.07626   -270.61954    34.022102 
 1864000    283.67945    296.31172    414.03368   -1001.9284    981.31071   -117.72196    33.719466 
 1868000    287.47264    608.43201    497.13074   -1015.7239    985.10017    111.30127    33.414239 
 1872000    277.08221      306.314    289.37278   -1055.9879    1034.9734    16.941223    33.654896 
 1876000    288.31704    272.58276    269.01168    -1058.844    1050.8616    3.5710812    33.389293 
 1880000    295.95727    342.21593    597.54874   -1072.9266    1073.5861    -255.3328    32.639509 
 1884000    256.80145    360.77445    229.90718   -1116.6306    1117.0028    130.86727    32.595249 
 1888000    320.21698    468.18116    316.11141   -1141.6356    1125.6014    152.06975    32.961721 
 1892000    278.47855    378.65943    337.16938   -1133.3629    1137.6335     41.49005    33.339651 
 1896000     261.4129    310.82179    150.45573   -1164.8773    1165.8949    160.36606     33.19851 
 1900000    269.14567    385.41289    272.62764   -1186.9264    1192.6115    112.78525    33.553531 
 1904000    257.15589    480.60871    314.85501   -1185.1759    1202.9743     165.7537    34.000704 
 1908000     288.8118    355.45307    232.15074    -1211.336    1202.3261    123.30234    34.116255 
 1912000    256.96416    319.39579    313.80898   -1216.5886    1234.7969    5.5868149    34.307235 
 1916000      268.763    283.45429     303.6411    -1229.392    1242.5476   -20.186808    34.332385 
 1920000    281.33093    340.33123    167.58661   -1268.8686    1258.3621    172.74462    34.157432 
 1924000    275.12812    214.32205    278.84676   -1266.6009    1270.3775   -64.524703    34.511925 
 1928000     259.2462    420.95838    245.64668   -1306.5825    1309.7061     175.3117    34.574941 
 1932000    278.62212    357.50472    341.81461   -1343.6605    1348.6252    15.690108    34.688903 
 1936000    288.26439    264.51459    384.73054   -1351.8463    1348.4747   -120.21594    34.911534 
 1940000    292.91167    371.96734    414.71909   -1389.4297    1382.5505    -42.75175    35.053974 
 1944000    294.89382    452.41982    422.09104   -1405.0261    1389.9247    30.328774    34.953057 
 1948000    297.39111    295.40392    354.96704   -1415.6082    1392.1279   -59.563111     35.17792 
 1952000    285.23568    288.15231    293.80146   -1441.3262    1428.9024   -5.6491573    35.280156 
 1956000    299.24669     269.1377    440.80719   -1464.7453    1458.3377   -171.66949    35.249153 
 1960000    277.50747    260.87264    187.57706   -1471.3932    1465.5247    73.295581    34.845624 
 1964000    286.85902    269.42272    286.58476    -1497.906    1482.9882   -17.162044    34.866989 
 1968000    288.53195     391.5938    407.79695   -1500.1335    1491.3348   -16.203148    34.769604 
 1972000    299.60981    360.61361    439.68965   -1520.1488    1504.8799   -79.076036    34.836833 
 1976000    261.54896    338.52958    460.72294   -1533.0013    1545.3096   -122.19336     34.67012 
 1980000    289.63937    408.68776    514.79496   -1569.5137    1538.2457    -106.1072    34.762243 
 1984000    310.13385    328.43407    356.16397   -1586.3446     1563.173     -27.7299    34.752236 
 1988000    246.24088    361.97842     174.2781   -1600.5326    1617.6614    187.70032    34.632031 
 1992000    305.17413    251.83245    406.32977   -1646.9988    1615.1652   -154.49732     34.46391 
 1996000    276.34794    305.06495    304.09896   -1681.2237    1653.4014   0.96599381    34.089445 
 2000000    272.12534    347.77767    200.58761   -1688.7898     1692.475    147.19006    34.140885 
 2004000    286.38972    239.16974    316.65141   -1714.2606    1700.0832   -77.481677    34.152862 
 2008000    285.05115    460.09555    385.37063   -1732.0596    1711.8471    74.724918    33.832719 
 2012000    301.65978    501.33169    262.32472   -1749.5119    1723.6055    239.00698    33.826717 
 2016000     284.6393    464.06776    277.18244   -1756.4085    1737.0949    186.88532    34.002975 
 2020000    253.89959    354.22735    127.43038   -1772.1122    1788.3945    226.79697    34.463311 
 2024000    295.87373    304.36972    390.84523   -1809.1539    1813.3483   -86.475511    34.159885 
 2028000    304.94593    443.08357    252.45961   -1836.4148    1828.9111    190.62396    34.017065 
 2032000    307.32978    187.40445    445.89217   -1863.2048    1837.9078   -258.48772    34.074702 
 2036000    281.40194    144.31528    336.18737   -1879.0832    1881.5983   -191.87209      34.0862 
 2040000    305.89357    447.99377    345.32422   -1910.7866    1870.9587    102.66956    33.838018 
 2044000     278.1435    409.62573    396.09798   -1880.5952    1878.6091    13.527748    33.945902 
 2048000    270.53663    546.73741    312.46666   -1896.7472    1897.6163    234.27075    33.988503 
 2052000    284.52164    268.44021    246.17717   -1910.0224    1915.5288    22.263048     34.07735 
 2056000    311.98109    301.88053     596.4702   -1957.2703    1937.3273   -294.58967    33.950502 
 2060000    267.41382    339.84662    307.33842   -2000.9632    2003.2366    32.508193    33.835904 
 2064000    297.82462    360.05786    458.69629   -1998.2902    2001.5141   -98.638423     33.63743 
 2068000    292.80559      589.469    328.31914   -2007.9892    2004.4004    261.14986    33.492403 
 2072000    289.69831    447.97345     277.2733   -2041.0034    2036.4632    170.70015    33.712858 
 2076000    255.15876    211.49621    404.68253   -2056.3828    2080.0246   -193.18631    33.638773 
 2080000    293.38253     291.8773    311.15566   -2086.7257    2089.9558   -19.278362     33.76512 
 2084000    282.39871    354.26853    419.71021   -2106.7963    2110.5326   -65.441681    33.787091 
 2088000    265.53414    218.58569    130.69422   -2088.7152     2091.738    87.891471    33.527841 
 2092000    290.90722    432.76753    197.83035   -2102.9419    2089.6301    234.93718    33.713336 
 2096000    253.09676    233.14099    203.68773   -2099.6036    2103.8088    29.453257    33.711209 
 2100000    281.78812    346.15309     309.3015   -2121.0457    2122.9085    36.851596    33.836791 
 2104000    273.09441    421.90913    454.93169   -2126.1548    2138.9013   -33.022558    33.948624 
 2108000    292.98377    343.77172    358.47833   -2141.0587    2138.1559   -14.706611    33.904606 
 2112000    321.29737    388.17466    403.19907   -2177.9032    2154.5602   -15.024408    33.894519 
 2116000    249.32703     368.5174    419.87906   -2181.5085    2183.5676   -51.361663    33.541989 
 2120000    260.99286    445.12975    367.87967   -2201.1391    2207.5875    77.250079    33.238548 
 2124000    286.96939    364.42248    196.75377   -2222.0325    2226.3339    167.66871    33.517194 
 2128000     272.3789    417.70061    411.94561   -2242.3331    2235.7309    5.7550064    33.881097 
 2132000    300.52295    677.51569    245.23204   -2262.1088    2255.1923    432.28365    33.988217 
 2136000    252.43835    417.37935    455.56191   -2263.9924    2268.1734   -38.182563     33.84311 
 2140000    263.02345    387.79845    203.44604   -2296.4903    2304.8072    184.35242    33.925563 
 2144000    291.70146    378.38146    105.49364   -2334.7893    2327.4912    272.88782    34.125738 
 2148000    300.86591    506.87761    295.82179   -2344.4429    2322.5418    211.05582    34.132839 
 2152000      293.668    504.74256    320.22298   -2352.4217    2345.5304    184.51958     34.21023 
 2156000    274.93602    335.71853    321.92707   -2363.6655    2352.1429    13.791456    34.213982 
 2160000    268.93066    190.26055    386.15752   -2398.0711    2391.6948   -195.89697     33.91559 
 2164000    252.15401    148.96705    300.76856   -2398.9385    2416.8133   -151.80151     33.92982 
 2168000    268.41641    281.86228    294.24181   -2406.3545    2424.3382   -12.379528    34.179182 
 2172000    300.38758    295.52274    304.47668   -2457.9267    2425.9036    -8.953942    34.518714 
 2176000    274.68347    336.97642    324.85926   -2449.2999    2457.2332    12.117156    34.367741 
 2180000    281.82427    404.50559    332.10275   -2480.0761    2481.7098    72.402836     34.66978 
 2184000    297.17256    305.06754    564.72175   -2516.7541    2490.9516   -259.65422    34.623564 
 2188000    300.90827     528.0789    546.54054    -2550.315    2538.4828   -18.461635    34.651892 
 2192000    252.32146    147.30768    363.18089   -2540.6223    2558.3689   -215.87321    34.524192 
 2196000    274.34313    270.16939     307.6728   -2562.7025    2569.4715   -37.503403    34.716718 
 2200000    261.44161    356.81848    354.16646   -2599.2131    2599.2676    2.6520235    34.660445 
 2204000    263.30154    351.21694     187.1976   -2632.1004    2632.0341    164.01934    34.532912 
 2208000    288.79637    360.15183    259.31055   -2642.3849    2637.8846    100.84128    34.787973 
 2212000    290.12112    317.47036    384.73331   -2654.5651    2633.4436   -67.262951    34.931008 
 2216000    251.76942    334.58444     217.3056   -2664.5491    2666.4762    117.27884    34.851622 
 2220000    292.06506    375.68688    463.42974   -2666.8784    2666.6679   -87.742859    34.952011 
 2224000    293.97676    325.58936    369.34074   -2692.1233    2668.7205   -43.751388    34.836404 
 2228000    251.75794    160.42635    326.02632   -2685.9481    2700.6281   -165.59997    34.937264 
 2232000    292.23184     311.6861    328.15386   -2718.1857    2715.4959   -16.467759    35.269974 
 2236000    304.02853    529.08166    287.29507   -2747.3669    2723.6366    241.78658    35.494862 
 2240000    323.85925    523.96845    533.14407    -2765.817    2751.3239   -9.1756179    35.586322 
 2244000    281.02195    279.10183     589.1701    -2756.576    2758.9261   -310.06827    35.482009 
 2248000    259.25778    319.50112    317.71039   -2789.6784    2769.3838    1.7907318    35.631583 
 2252000    271.48604    361.16864    329.33698    -2798.364    2779.7176     31.83166    35.557359 
 2256000     309.2945    122.03783    317.88133   -2795.0394    2764.9077    -195.8435    35.865421 
 2260000    279.20129    325.43026     263.5182   -2800.8158    2792.6267    61.912053     35.73211 
 2264000    275.79523    239.50376    240.46855   -2824.0641    2827.3352  -0.96478885    35.853243 
 2268000     278.1393    438.90673     241.0922   -2837.7297    2824.3812    197.81453    35.844941 
 2272000    302.30909    383.29291    424.29313   -2841.1916    2813.9075   -41.000218    35.791839 
 2276000     257.8151    288.01245    366.91654   -2850.2203    2859.7275   -78.904093    35.711465 
 2280000    265.86125    133.96084    247.49333   -2848.9981    2853.6418   -113.53249    35.822036 
 2284000    254.22659    456.33728    338.87005   -2861.7918    2869.7824    117.46723    35.724823 
 2288000    262.84847     508.6514    315.42516   -2912.0888    2903.2415    193.22623    35.815602 
 2292000    269.70593     247.6816    257.36279   -2948.3066    2941.0322   -9.6811882    35.899223 
 2296000    292.20102    495.32664    398.96551   -2958.3984    2939.0613    96.361121    35.938834 
 2300000    283.09667    328.09728    435.21355   -2962.9187    2945.7809   -107.11627    36.190116 
 2304000    300.43696    342.47593    258.66558   -2980.1758     2971.579    83.810353    36.183052 
 2308000     289.5293    443.35128    381.11413   -3019.7181    3004.1024    62.237147    36.380074 
 2312000    288.27281    446.82542    298.00766   -3036.9108    3032.4275    148.81776    36.505769 
 2316000    278.45593    323.00222    151.62665   -3022.5452    3026.1784    171.37557    36.544747 
 2320000    284.78394    222.21796    342.31594   -3069.9493    3035.4854   -120.09799    36.378506 
 2324000    290.86638    713.83039    445.15832   -3074.2381    3066.4381    268.67207    36.528691 
 2328000    273.24404    270.79499    218.37049   -3071.0721    3072.2949    52.424501    36.544069 
 2332000    278.66269    272.77051    350.68706   -3103.2464    3099.3493   -77.916542    36.456261 
 2336000    270.98535      190.614    367.45282    -3124.821    3101.0978   -176.83882    36.365065 
 2340000    301.02192    410.94053    462.56543   -3143.7181    3134.7588   -51.624896    36.134358 
 2344000    302.79102    440.56941    159.83489   -3172.3223    3157.8066    280.73452    36.031012 
 2348000    313.84595    510.39126    273.07605   -3218.1146    3178.6328    237.31521    35.952428 
 2352000     288.4366    196.66525    419.97974   -3235.2619    3213.1683   -223.31449    35.771116 
 2356000    279.21001    296.34905    400.28909    -3255.485    3243.7219   -103.94004    35.672311 
 2360000    261.15934    245.67913    428.99124   -3253.6568    3267.2575   -183.31211    35.487231 
 2364000    267.90687    339.82492     338.6214   -3286.2541    3289.5551    1.2035213    35.502023 
 2368000    271.80536    198.99736     267.7065    -3302.307    3299.0544   -68.709142    35.325713 
 2372000      265.899    345.51988    377.27023   -3331.2505     3329.137   -31.750357    35.063542 
 2376000    287.74716    576.87017    447.69793    -3348.122    3334.8802    129.17224    35.034914 
 2380000    285.31821    442.47647    229.90604   -3337.7126    3337.0851    212.57044    35.050562 
 2384000    273.88488     278.6605    300.75443    -3351.089    3355.5802   -22.093929    35.030617 
 2388000    292.69188    422.94691     301.1071   -3374.8032    3380.2875    121.83982     35.05397 
 2392000    287.06594    325.67571    391.20507   -3392.5212    3378.4277   -65.529358    34.939403 
 2396000    313.19832    573.24018    332.01434   -3388.9163    3377.5512    241.22584    35.106641 
 2400000    288.48272    415.37052    494.70902   -3390.2366    3395.6151   -79.338502    35.040025 
 2404000    283.28933    434.54359    319.39642   -3407.5898    3399.2041    115.14717    35.097622 
 2408000    284.35154    481.97555     340.0529    -3406.544    3392.8013    141.92265    35.097628 
 2412000    248.59562    238.22149    295.55671   -3400.4255    3409.4525    -57.33522    35.061483 
 2416000     283.2183    249.93325    321.20503   -3436.4956    3416.0066   -71.271775    35.159898 
 2420000    328.76959    281.52081    237.77312   -3465.9341    3423.6305    43.747693    35.149392 
 2424000    278.29203    347.18171    277.26316   -3470.2464    3460.9268    69.918544    35.370816 
 2428000    288.73643    393.63521    349.50005   -3471.3272    3465.5798    44.135157    35.526094 
 2432000    272.01519    487.30901     398.4744   -3481.0899    3490.5999    88.834612    35.510262 
 2436000    271.87082    343.78092    246.23798    -3486.744    3496.3161    97.542944    35.541084 
 2440000    270.61343    281.63225    392.20197   -3487.7651    3479.3799   -110.56972    35.505882 
 2444000    268.13763    118.46563    416.41992   -3481.1707    3501.2799   -297.95429    35.650868 
 2448000    262.55659    312.72142    326.57464   -3499.8932    3508.7928   -13.853219    35.471483 
 2452000    280.43626    392.10473    159.11663   -3536.0786    3530.8324     232.9881     35.58505 
 2456000    258.20785    394.40577    248.48499   -3543.4914    3548.8768    145.92078    35.541449 
 2460000    257.93876    487.19938     436.5569    -3570.661    3578.9921    50.642481    35.655326 
 2464000    262.17076    335.29721    343.08645   -3597.4933    3612.8853   -7.7892379    35.641043 
 2468000    281.24949    415.66289    304.04589   -3601.9263    3610.8708    111.61701    35.688359 
 2472000    254.59139    539.77778    236.23229    -3606.648    3618.9186    303.54549    35.660401 
 2476000    281.25957    542.05419    278.98222   -3623.5045    3616.3262    263.07196    35.727354 
 2480000    255.61881    301.13197    462.53409   -3611.3481    3614.4886   -161.40212    35.561083 
 2484000    260.33897    384.15935    154.17283   -3632.9623    3640.1094    229.98652     35.73713 
 2488000    273.81451    326.57081    366.95123   -3639.4639    3639.1523   -40.380415     35.87102 
 2492000    275.70859    443.75082    114.76014   -3661.4505    3676.0665    328.99069    35.976223 
 2496000    273.48187    325.74143    363.36189   -3705.8054    3700.8544    -37.62046    35.974723 
 2500000    306.69256    381.78541    313.44615   -3718.0667    3704.7653    68.339253    36.154815 
 2504000    294.73634    364.42423    413.77712   -3732.9066    3708.5107   -49.352882    36.159302 
 2508000    252.34513    270.46206     197.0378   -3725.4507    3750.8371     73.42426     36.25841 
 2512000    261.33383    491.49248    333.17635   -3755.9948    3775.2741    158.31613    36.299276 
 2516000    283.36382    438.18297    286.07598   -3801.5722    3791.8863    152.10699    36.143225 
 2520000    252.36347    261.56641    344.33564   -3810.9881    3825.4464   -82.769229    36.105674 
 2524000    270.35715    286.82222    278.62888   -3821.0464    3827.6232    8.1933361    36.164006 
 2528000    274.06001     277.9766    285.13675   -3828.4938    3832.7855   -7.1601539    36.305638 
 2532000     287.7465    636.63885    373.11886   -3872.7982    3870.9306       263.52    36.381533 
 2536000    284.92427    324.08934    279.78903   -3880.4212    3876.5056    44.300314    36.491238 
 2540000     293.2515    262.97699    215.26738   -3895.1283    3886.4339    47.709612    36.516813 
 2544000    279.51885    380.91845    395.58729   -3908.0358    3888.5084   -14.668847    36.504932 
 2548000    296.30653     239.1228    196.03222   -3923.1781    3906.1962    43.090573    36.484565 
 2552000     262.6834     314.9482    383.38091   -3921.8731     3932.334   -68.432704    36.430885 
 2556000    268.34167    336.68602    323.11872   -3940.4144    3941.3231    13.567294    36.304663 
 2560000    281.05665    443.65444    454.86622   -3944.7175    3957.2299   -11.211787    36.168578 
 2564000    300.92916    178.91733     223.5737   -3983.9126    3967.7864   -44.656368     36.25533 
 2568000    252.83591    265.93739    280.05102   -3987.0922    3993.9639   -14.113634    36.331797 
 2572000    278.86843    375.49295    269.92573   -4002.1901    3999.4622    105.56722    36.309122 
 2576000    280.86771     315.2803    261.43632   -4018.2898    4019.4604    53.843979    36.330493 
 2580000    301.62444    496.45471    217.30775   -4044.3041    4042.8891    279.14696    36.489932 
 2584000    278.10182    457.82582    235.46483    -4073.492    4055.4167    222.36099    36.533155 
 2588000    300.15495    442.80508     328.6881   -4101.8622    4076.7356    114.11697     36.66812 
 2592000    284.38571     168.1381    333.13085   -4104.6251    4091.6808   -164.99274    36.707754 
 2596000    261.42476    339.27894    228.52327   -4121.2425    4113.0792    110.75567    36.874968 
 2600000    293.07562    326.29088    382.65989   -4141.5766     4121.515   -56.369014    36.896812 
 2604000    287.06099    440.87877    501.07071   -4172.1664    4158.9324   -60.191939    36.884905 
 2608000    294.38633    284.50905    420.36355   -4186.1191     4185.693    -135.8545     36.78342 
 2612000    246.94633    333.42145    299.10395    -4185.585     4205.349    34.317505    36.752919 
 2616000    273.43076    257.46336    270.24911   -4217.1715    4218.2304   -12.785751    36.726601 
 2620000    285.47659    251.50165    266.86974   -4221.8854    4215.7122   -15.368095    36.729009 
 2624000    284.23714    484.39792    264.85169   -4247.3815    4237.2808    219.54623    36.761782 
 2628000    240.54857    320.39652    230.25933   -4237.0084    4267.9516    90.137192    36.875685 
 2632000    273.13314    398.84411    331.73334   -4243.6502    4250.9899    67.110773    36.752793 
 2636000    288.98787    430.36277    471.08858   -4250.6402    4243.2792   -40.725813    36.875796 
 2640000    264.66513    358.36101      255.441   -4276.0367     4271.477    102.92001    36.819427 
 2644000     280.7401    252.66275    437.86282    -4275.465    4274.6894   -185.20007    36.880605 
 2648000     266.6171    210.62554    172.47982   -4295.2631    4293.8708    38.145715    36.855156 
 2652000    295.38641    230.03027    559.86966   -4334.7598     4302.867    -329.8394    36.730948 
 2656000    315.03364    407.26264    531.89394   -4360.1563    4334.0362    -124.6313    36.720074 
 2660000     291.8676    506.87792    279.65223   -4363.1986    4363.1661    227.22569    36.666923 
 2664000    283.43715    494.94672    190.27001     -4395.23    4379.5339    304.67671    36.643376 
 2668000    273.31942    248.96065     320.6158   -4408.4766    4389.3629   -71.655154    36.742411 
 2672000    289.33538    219.90411    315.30056    -4430.102    4419.2623   -95.396443    36.626682 
 2676000     312.4259    399.96544    410.95239   -4466.6374    4448.8611   -10.986947    36.623145 
 2680000    279.00565    296.51338    192.49295   -4495.6575    4492.4795    104.02043    36.738528 
 2684000    276.34109    259.48792    347.38946   -4534.2395    4524.9155   -87.901534    36.661856 
 2688000    309.93696    486.06668    392.36671   -4554.2613    4509.7421    93.699968    36.664733 
 2692000    279.13731    340.11819    235.35026   -4532.3765    4523.2503    104.76793     36.64944 
 2696000    263.10375    295.21969    259.54347   -4543.9448    4545.5795     35.67622    36.710046 
 2700000    288.23229    349.02243    447.65985   -4571.6469    4564.0279   -98.637424    36.577715 
 2704000    284.26936    268.83892     399.1379   -4584.6021    4577.1678   -130.29898    36.618232 
 2708000    296.97344    297.52549    378.21158    -4604.081    4588.1231   -80.686093    36.634208 
 2712000    271.68243    265.91493    303.36811   -4615.2974    4609.5412    -37.45318    36.589069 
 2716000     302.6804    391.99172    223.79586   -4659.7149    4644.2907    168.19586    36.617797 
 2720000    270.68733    222.04043    353.41859   -4653.2295    4649.9695   -131.37817    36.549221 
 2724000    304.10154    177.49032    252.48331   -4680.0619    4654.5561   -74.992991    36.825784 
 2728000    271.12359    273.22961    270.77391    -4701.582    4697.1053    2.4556963    36.833571 
 2732000    272.71551    268.07519    371.07364   -4717.0618    4708.0277   -102.99845    36.871455 
 2736000    266.51548     407.6829     436.6595   -4729.0593     4733.577   -28.976602    36.950605 
 2740000    262.31786    192.51746    208.35036   -4739.1748    4736.1807   -15.832897     37.01846 
 2744000    302.53134    270.61751    201.33659   -4760.1977    4742.0726    69.280918    37.065863 
 2748000    282.53396    450.49661    305.50231   -4772.1129     4758.151     144.9943    37.126831 
 2752000    276.49476    164.85124    391.00247   -4774.6568    4770.3521   -226.15123    37.175252 
 2756000    264.85104    217.07395    279.65568   -4789.5301    4792.8393   -62.581722    37.084189 
 2760000    266.60568    428.82138    439.33358    -4805.374    4804.3898   -10.512195     37.08354 
 2764000    264.50922    373.18414    307.39803   -4803.4894    4804.8761    65.786112    37.061657 
 2768000    269.56712    415.81021    339.19109   -4839.7729    4833.6549    76.619125    37.115238 
 2772000    279.06206    321.97006    321.61088   -4849.0909    4830.9154   0.35918112    37.088468 
 2776000    265.67261    380.56444    396.24077   -4848.7395    4844.6901   -15.676326    37.041249 
 2780000     265.5558    397.28929    176.47404   -4877.0755    4865.3453    220.81525    37.131425 
 2784000    303.87974     335.7211    423.10727   -4873.2225    4862.1819   -87.386168    37.005958 
 2788000    274.58774    291.08723    373.70877   -4895.7819    4894.0963   -82.621547    37.093276 
 2792000    271.17212    517.28344    377.53619    -4923.336    4919.9604    139.74725     36.79766 
 2796000    309.15932    560.53522    357.18454   -4944.4167    4931.0882    203.35068    36.676651 
 2800000    283.84686    238.65119    268.55445   -4955.0515    4946.2511   -29.903266    36.658281 
 2804000    327.21007    434.46997    497.10077   -4965.3233    4941.8543   -62.630802    36.575816 
 2808000    265.59503    265.87154    424.70993   -4968.6725    4979.7273    -158.8384    36.575609 
 2812000    279.60007    375.97105    347.61459   -5004.0085    5000.4208    28.356462    36.642652 
 2816000    291.52456    386.24667    288.58451   -5053.9403    5053.2648    97.662169     36.75549 
 2820000    286.73876    269.84432     231.1433   -5069.0847    5065.0945    38.701017    36.827781 
 2824000    264.86554    354.16351    202.28235   -5074.1888    5068.0167    151.88116    36.852214 
 2828000      262.569    209.42558    320.06098   -5099.9431    5088.1434   -110.63539    36.952843 
 2832000      299.491    640.47281    129.93902   -5111.0362    5092.3716     510.5338    37.050448 
 2836000    273.60339    449.75088    254.71234   -5103.5403    5116.6039    195.03853    37.026925 
 2840000    288.52781    217.79293    470.43599   -5148.3193    5145.7554   -252.64306    36.983636 
 2844000    308.65896    239.14192    255.41258   -5181.2643    5160.3484   -16.270666    37.026892 
 2848000    279.92017    400.06621    373.68732   -5220.8434    5199.8898    26.378899    36.958835 
 2852000    286.83047    306.84153    326.82804   -5231.5031    5234.6739   -19.986514    36.913345 
 2856000    246.20985    221.32517    278.23179   -5230.5115    5255.9184    -56.90662    36.781439 
 2860000    256.46202    564.23442    194.01182   -5255.6816    5272.6757     370.2226    36.789871 
 2864000    280.14663    763.73542    382.53851   -5264.6695    5282.5889    381.19691    36.815019 
 2868000    281.14273    424.83218    478.31354   -5287.9486    5266.8039   -53.481355    36.891767 
 2872000    240.07197    328.99004    624.24927   -5274.3342    5299.0548   -295.25922    36.878252 
 2876000    294.49428    431.94712    370.71257   -5319.9213    5312.8382    61.234552    36.878756 
 2880000    281.71204    395.21699    175.91769   -5332.3125    5335.0148     219.2993    36.849942 
 2884000    281.20396    354.10149    276.55038   -5326.3575    5318.3139    77.551114    36.853182 
 2888000    285.99697    213.04237    414.46987   -5333.4391    5331.2741    -201.4275    36.859381 
 2892000    279.83196    210.04064    393.10084   -5353.5592    5349.9676    -183.0602    36.789923 
 2896000    282.45221    232.03947    249.57834   -5365.7504    5356.7039   -17.538865    36.809617 
 2900000    252.25261    359.77917    317.96358   -5363.5225     5375.911    41.815599    36.775876 
 2904000    269.63744    300.21576    471.57091   -5373.0672    5368.7399   -171.35515    36.597384 
 2908000    304.22407    691.46085    251.71007   -5402.1023    5373.6943    439.75079    36.594834 
 2912000    286.99623    206.10772    237.20369   -5403.5873    5392.1157   -31.095972    36.508893 
 2916000    274.90365    503.59566     272.4043   -5406.0163    5406.4653    231.19135    36.541247 
 2920000    290.99058    373.21199    393.83794   -5424.7407    5415.6214    -20.62595    36.653495 
 2924000    290.93245    377.09782    470.70194   -5425.8567    5426.0612   -93.604121    36.764492 
 2928000    253.41153    301.69866    385.88134   -5441.7994    5458.7109   -84.182682    36.767518 
 2932000    248.94444    464.71691      290.275   -5425.2527    5448.0779    174.44191    36.691546 
 2936000     262.9989    448.67384    589.70671   -5459.6592    5454.1848   -141.03287    36.771963 
 2940000    300.16442    357.37795    346.27247   -5498.5659      5483.17     11.10548    36.731015 
 2944000      253.401    491.90741    182.88031   -5511.1051    5502.4689     309.0271    36.808302 
 2948000    267.11347    400.90186    186.41654   -5554.6305     5551.823    214.48532    36.858964 
 2952000    293.42384    362.86289    163.75515   -5579.7186    5586.2534    199.10773    36.893844 
 2956000    265.97146    431.18225      237.232    -5599.608     5593.925    193.95025    36.940394 
 2960000    291.84955    376.73339    253.19086   -5627.3472    5622.2322    123.54253    36.948525 
 2964000    240.79688    337.74866    282.44073   -5628.8869    5647.6909    55.307936    36.914717 
 2968000    282.06672    499.20073    227.34892   -5630.4151    5651.5357    271.85182    36.857948 
 2972000    296.37169    316.42838    336.74457   -5639.2371    5642.1512   -20.316189    36.938962 
 2976000    272.49525    404.42666    294.20719   -5687.5008    5667.4238    110.21947    37.041995 
 2980000    279.58388     305.3344    340.30711   -5678.1016    5679.4431   -34.972714    36.861957 
 2984000    287.56867    301.49313    293.97285   -5700.5479    5689.7544    7.5202846    36.818981 
[...]
32888000    278.14507    383.51818    388.36358    -127279.1    127335.38   -4.8453987    38.145838 
32892000    287.64914     450.3084    290.32724    -127281.2    127326.13    159.98116    38.150327 
32896000    276.44444    243.40508     367.6113   -127281.27    127336.87   -124.20622     38.15751 
32900000    261.86861    394.93263    276.29467   -127300.53    127356.05    118.63796    38.155823 
32904000    296.73765    307.81966    427.66142   -127313.79    127355.23   -119.84177    38.156411 
32908000    293.78636    443.43203    284.30218   -127328.02    127375.55    159.12985    38.149618 
32912000    257.92573    447.21837    469.95072   -127347.21    127419.01    -22.73235     38.15051 
32916000    258.47631    311.19692    365.85071   -127365.21    127428.12   -54.653786    38.154898 
32920000    268.24869    247.98349    177.67349    -127386.7    127446.87    70.310009    38.153313 
32924000    268.54863    270.91569    347.57062   -127403.22    127469.75    -76.65493    38.153652 
32928000    290.85271    424.01411    546.16464    -127436.2    127483.89   -122.15054    38.149332 
32932000    286.33439    308.49867    318.00161   -127452.43    127502.67   -9.5029382    38.150043 
32936000    261.08258    273.98876    310.14907   -127455.61    127508.04   -36.160305    38.151173 
32940000    294.44081    322.68772     230.1433   -127471.91    127508.77    92.544418    38.148763 
32944000     310.5579    463.12294    366.95678   -127498.45    127516.03    96.166164    38.147795 
32948000    322.02093    566.62952    579.26952   -127506.62    127536.18   -12.640007    38.147842 
32952000    273.78254     466.4755     277.5416   -127516.43       127555     188.9339    38.148632 
32956000    291.88051     400.4066    310.11629   -127528.43    127574.74    90.290307    38.152802 
32960000     285.7926    378.34442    324.51736   -127556.74    127604.05    53.827059    38.155224 
32964000    291.48309    391.82229    290.92383   -127563.89    127607.82    100.89846    38.152213 
32968000    290.61806     257.6662    414.64447   -127577.82    127615.24   -156.97828    38.150959 
32972000    295.00492    460.09196    326.86474   -127581.38    127635.69    133.22722     38.15167 
32976000    256.35806    205.97346    203.17018   -127578.49    127647.22    2.8032716    38.156341 
32980000    242.13849    316.41095    210.03056   -127610.01    127669.99    106.38039    38.155746 
32984000    284.59787    435.36479    301.38963   -127653.74    127707.37    133.97515    38.157266 
32988000    313.82384    414.46727    379.00905   -127692.05     127703.7    35.458219     38.15033 
32992000    300.53107    422.05235    305.15977   -127723.95    127746.17    116.89258     38.14777 
32996000    283.38746    562.44462    186.29372   -127746.97    127780.12    376.15091    38.140697 
33000000    287.91935    320.89916    229.80807   -127753.08    127812.02     91.09109    38.138785 
33004000    265.40087    343.92044    139.82376   -127767.41    127843.64    204.09668    38.138366 
33008000    268.38077    416.15745    288.88012   -127818.63     127854.3    127.27733    38.135646 
33012000     312.0864    348.26261    261.40682   -127826.15    127856.92    86.855794    38.136577 
33016000    299.35654    402.24411    234.22478   -127842.26    127873.69    168.01934    38.143884 
33020000    292.08156    556.13063    326.66014   -127846.91    127887.33    229.47049    38.142575 
33024000     287.9779    427.14798     265.2215   -127853.32    127896.94    161.92648    38.142555 
33028000    278.47121    305.30528     181.6687   -127870.02    127915.14    123.63659     38.14343 
33032000    279.61714    224.06632    492.65331   -127873.05    127929.35   -268.58698    38.140039 
33036000    248.99781    391.64815    272.19954   -127875.87    127948.06    119.44861     38.13931 
33040000    299.68567    498.15959    420.04973   -127904.72    127949.05     78.10986    38.139244 
33044000    280.45372    458.12259    250.92629   -127926.65    127966.94     207.1963    38.137092 
33048000    261.38216    345.64215    311.58255   -127933.92    128000.04    34.059601    38.138809 
33052000    273.14797     376.0147    329.68759   -127953.76    128011.78    46.327112    38.139061 
33056000    282.73886    226.93398    455.07575    -127982.1    128023.04   -228.14177     38.13828 
33060000    267.87793    261.99603    431.49435   -127995.18    128038.88   -169.49832    38.135326 
33064000    252.15846     346.9543    233.56356   -128020.13    128092.27    113.39074    38.133193 
33068000     262.7727    332.75287    351.86627   -128038.28    128106.94   -19.113392    38.138781 
33072000    257.28997    269.39006    313.39948   -128056.12     128116.6   -44.009417    38.140988 
33076000    267.82494    267.01244    493.16226    -128042.5    128086.84   -226.14981    38.138999 
33080000    291.90301      452.784    250.62769   -128058.59    128109.97     202.1563    38.138744 
33084000    277.50077    277.87422    262.98945   -128071.91    128117.79    14.884766    38.140896 
33088000    287.41187    205.40586    336.60781   -128090.55    128133.23   -131.20196    38.139664 
33092000    281.80146     329.7905    348.43687   -128127.34     128159.3   -18.646373    38.140759 
33096000    291.97119    250.03739    230.66417   -128146.34    128182.16    19.373216    38.144127 
33100000    272.03064    282.44247    265.38074   -128190.55    128234.98    17.061733    38.144338 
33104000    294.06386    418.08445     357.6169   -128207.03    128240.37    60.467546    38.143817 
33108000    285.37647    241.44754    332.75799   -128213.04    128275.98    -91.31045    38.146077 
33112000    274.89121    367.09126    292.24645   -128257.74    128299.48    74.844818    38.143909 
33116000    296.10297    367.78206    270.09233    -128267.8    128320.59    97.689728    38.146721 
33120000     281.8748     284.9687     350.4126   -128295.44    128326.91   -65.443903    38.146783 
33124000    292.88943     280.7218    582.71069    -128304.5    128338.56   -301.98889     38.14611 
33128000    269.01728    316.36863    352.84802   -128325.81    128361.97   -36.479395    38.145328 
33132000    260.89269    585.14132    263.66828   -128332.48    128399.34    321.47304     38.14332 
33136000    299.26985    182.72879    341.55331   -128373.04    128388.98   -158.82453    38.143773 
33140000    296.61665    511.02461    226.63291   -128380.29     128430.8     284.3917    38.147883 
33144000    315.93196    423.07597    247.80796   -128407.11    128427.13    175.26801    38.151635 
33148000    268.38267    395.08781     259.3108   -128422.34    128474.88    135.77701    38.151993 
33152000    274.22299    395.38608    402.46011   -128453.13    128504.39   -7.0740303     38.14749 
33156000    269.80146      421.209    358.17906   -128456.56    128504.91    63.029943    38.150294 
33160000    277.40899    409.29877    311.16164   -128495.69    128526.23    98.137138    38.151325 
33164000    305.74322     253.2536    211.26326   -128512.75    128562.68    41.990344    38.153329 
33168000    288.95465     495.1014    253.17228   -128551.18    128595.72    241.92912    38.153799 
33172000    256.99146    481.54964     250.6151   -128538.44    128602.23    230.93454    38.149146 
33176000    257.94256    330.38406    355.84301   -128564.91    128631.46   -25.458951    38.153839 
33180000    293.14577    461.86937    372.01839   -128593.64    128635.74    89.850984    38.153582 
33184000    272.84722    185.29364    202.48905   -128598.23    128648.05   -17.195415    38.150201 
33188000    306.13418    510.80193    467.84015   -128605.61    128646.41    42.961786    38.154536 
33192000    262.76366    288.10174    322.78011   -128628.43    128675.69   -34.678376     38.15958 
33196000    269.80569    486.42172    382.36508   -128634.33    128690.48    104.05664    38.160099 
33200000    261.42174    550.18897    290.15277   -128648.56    128700.94     260.0362    38.165394 
33204000    275.50904    199.71639    332.28184   -128648.92    128713.74   -132.56545    38.164689 
33208000    280.01681     205.2539    465.16366   -128673.74    128723.79   -259.90976    38.164069 
33212000    264.32302    434.69333    280.84456   -128689.37    128748.42    153.84877    38.161113 
33216000    272.74831    432.46925    251.78317   -128714.27    128768.92    180.68609    38.162659 
33220000    265.92679    352.70004    291.73529    -128730.8    128771.86    60.964745    38.161345 
33224000    296.18262    441.40297    309.29861   -128739.52     128791.8    132.10436    38.159496 
33228000    307.09309    441.31847    240.49648   -128766.58    128794.87    200.82199    38.161623 
33232000    270.87418    309.49854    350.95854   -128771.53    128817.66   -41.459996    38.165224 
33236000    275.06049    184.05132    289.40956   -128793.95    128851.03   -105.35824    38.165338 
33240000    247.45288    271.31743    271.24952   -128790.87    128856.29  0.067915043    38.163986 
33244000    279.86004    328.58044    162.30722   -128814.77    128851.64    166.27322      38.1648 
33248000    284.97691    299.13178    221.04532   -128827.74    128869.65    78.086467    38.165349 
33252000    281.93716    260.30064    203.68202   -128839.36    128885.82    56.618621     38.16365 
33256000    291.23221    547.45832    247.06421   -128869.16     128906.5    300.39412    38.173917 
33260000    277.87063    289.05638    279.15497   -128875.82     128921.4    9.9014105    38.172777 
33264000    258.48461    308.48594    322.19188   -128883.95    128951.01   -13.705937    38.174869 
33268000     318.9901    503.85939     433.3336    -128916.3    128962.85    70.525795     38.17478 
33272000    274.37508    223.41814    239.03475   -128930.15    128967.95   -15.616607    38.170518 
33276000    292.54993    471.07986    156.14104   -128951.95    129003.36    314.93882    38.172118 
33280000    288.93778    295.43257    307.06775   -128985.32    128995.93   -11.635172     38.17398 
33284000    292.12093    396.67538    255.60842   -128996.54    129039.52    141.06697    38.174863 
33288000    263.74743    244.66563    289.31082   -129026.87    129075.61   -44.645191    38.172287 
33292000    306.91507    237.47881    427.43113    -129047.1    129084.01   -189.95232    38.173086 
33296000    273.14544    379.22837    296.28976   -129063.46    129094.99    82.938611    38.174348 
33300000      278.391    341.53384    314.28896   -129065.14    129113.68    27.244882    38.171483 
33304000    289.28071    442.23315    337.56818   -129084.48    129127.01    104.66496    38.173263 
33308000    269.82915    311.26407     344.0582   -129105.12    129146.73   -32.794125    38.177934 
33312000    293.75534    251.35919    370.77371   -129101.08    129132.72   -119.41452    38.173075 
33316000    283.37112    315.39727    403.21771   -129126.38    129144.69   -87.820433    38.178571 
33320000     272.7009     148.8418    361.08835   -129153.41    129181.04   -212.24656     38.17632 
33324000    273.67272    156.97289    254.97131   -129153.12    129195.92   -97.998417     38.17694 
33328000    253.05106    355.81532    300.23948   -129174.86    129221.12    55.575834    38.177867 
33332000    302.30075    537.90432     492.4819   -129194.42    129221.79    45.422422    38.178168 
33336000     289.2907    385.78344    282.32928   -129222.95    129249.34    103.45416    38.177389 
33340000    270.43951    264.63165    200.02725   -129245.19    129306.73    64.604407     38.17396 
33344000    270.31987    231.21111    340.46638   -129270.69    129317.34   -109.25527    38.176059 
33348000    269.46614    327.41701    232.55209   -129280.44    129347.51    94.864925    38.175621 
33352000    298.69926    326.77123    202.75177   -129332.65     129350.8    124.01945    38.175685 
33356000    303.52414    345.28147    289.00086   -129366.93    129383.68    56.280606    38.174717 
33360000     291.2133    293.83643    481.91304   -129367.35    129411.75    -188.0766    38.175338 
33364000    291.40157    245.81052     337.6087   -129392.23    129418.15   -91.798183    38.174821 
33368000    276.80768    528.66429    330.97499   -129411.68    129457.22     197.6893    38.168926 
33372000    258.88043    287.33684    235.43019    -129426.1    129482.38    51.906656    38.165194 
33376000    303.84702    258.71158    399.31963   -129426.66    129476.14   -140.60804    38.163091 
33380000    277.97645    492.93058    230.58799   -129440.72    129508.94    262.34259    38.163162 
33384000    273.25973    346.60332    538.83603   -129456.65    129496.81   -192.23271    38.163818 
33388000    287.44721    265.67623    199.48304   -129477.23    129514.53    66.193197    38.162279 
33392000    333.97936    258.74521    481.19661   -129499.27     129507.5   -222.45139    38.158187 
33396000    279.85713    238.36882    431.21534   -129501.27    129547.52   -192.84652    38.152978 
33400000    299.26028    381.43878    273.47103   -129525.82    129570.19    107.96775    38.150888 
33404000    266.82632    369.11885    214.98638   -129539.84    129600.83    154.13247    38.148796 
33408000    257.55402    324.12003    289.57975   -129560.26    129603.98    34.540272    38.147054 
33412000    278.59215    419.18859    172.78659   -129579.66    129616.76    246.40199    38.147425 
33416000    263.42324    287.67734    140.02549   -129577.38    129641.09    147.65186    38.148149 
33420000     276.2552    257.06607    225.81789   -129588.92    129641.53    31.248183    38.148512 
33424000    304.89391    603.68489    434.08493   -129620.14    129668.46    169.59996     38.15255 
33428000    268.67508    277.43135    362.57795   -129618.14    129674.85   -85.146604     38.15498 
33432000    252.42012    235.35835    285.85517    -129643.5    129704.55   -50.496819    38.152163 
33436000    261.98187     250.1223    394.38769   -129684.71    129741.12   -144.26538    38.150835 
33440000    255.00244    354.92561    407.49045   -129708.26    129774.67   -52.564846    38.151554 
33444000    275.50819    256.94679    300.00824   -129750.03    129800.29    -43.06145    38.150858 
33448000    256.73165    262.16638    177.71432   -129753.45    129829.53    84.452057    38.149641 
33452000    275.26836    460.99154    367.69509   -129809.19    129856.27     93.29645    38.155646 
33456000    277.35954    521.81372    300.44455   -129815.46    129866.35    221.36918    38.159511 
33460000    316.60938    450.52904    286.30501   -129824.66    129851.57    164.22403    38.157597 
33464000    274.64539    228.10328    243.91662   -129823.85    129883.14   -15.813338    38.157046 
33468000    274.54027    371.47534    268.45791    -129847.5    129895.41    103.01743    38.159107 
33472000    305.31904    248.16875    136.77243   -129879.15    129916.81    111.39632    38.157132 
33476000    262.69425    358.17383     185.8834   -129900.49    129938.66    172.29043    38.156015 
33480000    276.76736    414.35158    314.70728   -129909.98    129939.57    99.644301    38.156412 
33484000    263.48241    326.27498    208.84093   -129909.19    129972.72    117.43405    38.157997 
33488000     286.5082    351.74551      302.231   -129937.34    129985.16    49.514508    38.152526 
33492000    291.50168    211.29878    405.53145   -129969.79    129989.25   -194.23267    38.149769 
33496000    299.88282    544.28326    420.43816   -129963.13    130020.12    123.84511    38.150623 
33500000    289.39036    437.68869    197.40607   -129984.05    130016.19    240.28262    38.153032 
33504000    307.12927     382.4588    562.68328   -129998.47    130032.23   -180.22449     38.14885 
33508000    261.32244    260.60659    470.58369   -129979.08    130038.91    -209.9771    38.147532 
33512000    270.73465    354.19626    226.74942   -129991.34    130055.29    127.44684    38.151788 
33516000    294.79227    559.38634     226.8324   -130024.19    130073.38    332.55394    38.152927 
33520000    284.43323    410.41035    268.87728   -130029.36    130071.96    141.53307    38.150167 
33524000    306.05029    349.71412    289.12037   -130035.49    130074.21    60.593752    38.148732 
33528000    299.00276    282.27442    332.93609   -130061.32    130094.07   -50.661671    38.148134 
33532000    256.37776    365.93708    280.99569   -130067.55    130131.26    84.941386     38.14619 
33536000    291.24478    279.14889    169.35557   -130114.69    130156.27    109.79332    38.144685 
33540000    272.31598    370.66776    498.31822   -130129.79    130174.84   -127.65046     38.14583 
33544000    288.34212    507.54702     378.1246   -130132.65    130176.12    129.42243    38.145901 
33548000    268.74906     212.0549    265.67427   -130123.49    130187.64   -53.619376    38.141827 
33552000    293.38564    468.93225    390.60611   -130150.05    130190.39    78.326144    38.139262 
33556000    269.01773    545.28753     440.5809   -130150.85    130206.35    104.70663    38.136811 
33560000    263.64345    349.80375    389.55942   -130167.72    130249.38   -39.755673    38.135893 
33564000    273.01411    384.87334    294.37053   -130201.34    130259.35    90.502808    38.133547 
33568000    285.83585    228.41394    275.45726   -130221.31    130248.95   -47.043323    38.137165 
33572000    303.41294    470.53847     185.0852   -130214.97    130246.43    285.45327    38.137241 
33576000    277.31412    231.15974    237.33322   -130218.27    130266.59   -6.1734821    38.142739 
33580000    281.88599    400.80047    175.63004    -130213.2    130254.34    225.17043    38.147633 
33584000    278.06096    207.14878    336.01566   -130218.03    130277.92   -128.86689    38.152765 
33588000    282.77661    409.42358    354.40356   -130243.13    130286.83    55.020023    38.150785 
33592000    295.05482    352.52074    331.46682   -130256.89    130301.79    21.053924    38.149922 
33596000    301.40854    485.70045    249.76735   -130288.48    130321.32     235.9331    38.145234 
33600000    284.57311    257.47573    352.40994   -130301.99    130347.96   -94.934204    38.144591 
33604000    272.28227    305.61423    438.98207   -130317.27    130376.95   -133.36784    38.144429 
33608000    259.89087      270.454    305.96932    -130321.3    130390.97   -35.515323    38.138404 
33612000    278.82094    155.90681     305.9845    -130335.1       130393   -150.07769    38.135534 
33616000    289.41996    425.96378    257.10067   -130343.58    130392.35    168.86311    38.132973 
33620000    282.75868    410.67637    296.72969   -130357.96    130418.74    113.94668    38.134803 
33624000    281.80118    353.41837    334.80669   -130390.14    130454.92    18.611678    38.133807 
33628000    301.65849    396.38541    235.77303    -130415.5    130452.39    160.61237    38.133329 
Loop time of 9951.63 on 1 procs for 32000000 steps with 196 atoms

Performance: 347.280 ns/day, 0.069 hours/ns, 3215.555 timesteps/s
99.9% CPU use with 1 MPI tasks x no OpenMP threads

MPI task timing breakdown:
Section |  min time  |  avg time  |  max time  |%varavg| %total
---------------------------------------------------------------
Pair    | 3082.2     | 3082.2     | 3082.2     |   0.0 | 30.97
Bond    | 4937.6     | 4937.6     | 4937.6     |   0.0 | 49.62
Neigh   | 64.786     | 64.786     | 64.786     |   0.0 |  0.65
Comm    | 20.022     | 20.022     | 20.022     |   0.0 |  0.20
Output  | 7.7935     | 7.7935     | 7.7935     |   0.0 |  0.08
Modify  | 1783.1     | 1783.1     | 1783.1     |   0.0 | 17.92
Other   |            | 56.1       |            |       |  0.56

Nlocal:    196 ave 196 max 196 min
Histogram: 1 0 0 0 0 0 0 0 0 0
Nghost:    0 ave 0 max 0 min
Histogram: 1 0 0 0 0 0 0 0 0 0
Neighs:    3896 ave 3896 max 3896 min
Histogram: 1 0 0 0 0 0 0 0 0 0

Total # of neighbors = 3896
Ave neighs/atom = 19.8776
Ave special neighs/atom = 5.87755
Neighbor list builds = 147658
Dangerous builds = 0

write_restart FINALCONFIG

Total wall time: 2:54:06
