LAMMPS UA chain data file
 
         588  atoms
         586  bonds
         1164  angles
         1734  dihedrals
           0  impropers
 
           4  atom types
           2  bond types
           3  angle types
           3  dihedral types
           0  improper types
 
    -400.000000     400.000000 xlo xhi
    -400.000000     400.000000 ylo yhi
    -1.3000      125.300000 zlo zhi
 
Masses
 
  1   12.00
  2   1.00
  3   12.00
  4   12.00
 
Atoms

 1 1 4 2.44184 0.635393 -0.0123869 0 0 0
 2 1 4 2.23219 0.541358 1.6072 0 0 0
 3 1 4 1.63895 -0.587992 2.59935 0 0 0
 4 1 1 1.45691 -0.414511 4.19598 0 0 0
 5 1 1 0.324923 -0.946669 5.27984 0 0 0
 6 1 1 0.276352 -0.875936 6.94487 0 0 0
 7 1 1 -0.89381 -0.328329 7.95218 0 0 0
 8 1 1 -0.892348 -0.111927 9.59005 0 0 0
 9 1 1 -1.07874 1.15923 10.6359 0 0 0
 10 1 1 -0.904358 1.21956 12.2585 0 0 0
 11 1 1 0.0298385 2.092 13.3434 0 0 0
 12 1 1 -0.01769 1.9647 14.9654 0 0 0
 13 1 1 1.24815 1.72369 16.0552 0 0 0
 14 1 1 1.44451 1.49777 17.7476 0 0 0
 15 1 1 1.73597 0.194402 18.7358 0 0 0
 16 1 1 1.63541 0.166452 20.403 0 0 0
 17 1 1 0.914677 -0.953093 21.4346 0 0 0
 18 1 1 0.812204 -0.989569 23.0705 0 0 0
 19 1 1 -0.548091 -1.09431 24.0605 0 0 0
 20 1 1 -0.79398 -0.942879 25.7367 0 0 0
 21 1 1 -1.48634 0.23542 26.7721 0 0 0
 22 1 1 -1.57304 0.588495 28.371 0 0 0
 23 1 1 -0.743505 1.51932 29.5291 0 0 0
 24 1 1 0.570703 1.41567 30.6896 0 0 0
 25 1 1 1.43444 0.464765 31.8706 0 0 0
 26 1 1 1.19739 -0.718396 33.125 0 0 0
 27 1 1 0.0676597 -1.20389 34.3512 0 0 0
 28 1 1 -1.07397 -0.802324 35.5816 0 0 0
 29 1 1 -1.34061 0.33193 36.9081 0 0 0
 30 1 1 -0.547597 1.19148 38.1944 0 0 0
 31 1 1 0.599143 1.09224 39.4656 0 0 0
 32 1 1 1.30341 0.102052 40.6657 0 0 0
 33 1 1 0.910036 -1.02565 41.9201 0 0 0
 34 1 1 -0.14349 -1.43838 43.1696 0 0 0
 35 1 1 -1.1498 -0.875036 44.3894 0 0 0
 36 1 1 -1.32897 0.323701 45.6044 0 0 0
 37 1 1 -0.55307 1.13761 46.8888 0 0 0
 38 1 1 0.550165 1.08181 48.2237 0 0 0
 39 1 1 1.281 5.93146e-05 49.2455 0 0 0
 40 1 1 0.931125 -1.0675 50.5667 0 0 0
 41 1 1 -0.227483 -1.47108 51.7944 0 0 0
 42 1 1 -1.10616 -0.94913 53.1957 0 0 0
 43 1 1 -1.27 0.225586 54.428 0 0 0
 44 1 1 -0.492564 0.994874 55.7049 0 0 0
 45 1 1 0.72676 0.900082 56.9496 0 0 0
 46 1 1 1.4178 -0.0800218 58.1234 0 0 0
 47 1 1 1.01348 -1.2235 59.3717 0 0 0
 48 1 1 -0.122386 -1.65581 60.6301 0 0 0
 49 1 1 -1.09944 -0.89662 61.7944 0 0 0
 50 1 1 -1.21235 0.290534 63.0749 0 0 0
 51 1 1 -0.367893 1.04096 64.3769 0 0 0
 52 1 1 0.79577 0.74178 65.6047 0 0 0
 53 1 1 1.34983 -0.339367 66.8222 0 0 0
 54 1 1 0.907389 -1.41752 68.0639 0 0 0
 55 1 1 -0.155229 -1.68346 69.3624 0 0 0
 56 1 1 -1.04656 -0.945393 70.6767 0 0 0
 57 1 1 -0.980575 0.107484 72.0202 0 0 0
 58 1 1 0.00269604 0.804086 73.2076 0 0 0
 59 1 1 1.08808 0.500105 74.5146 0 0 0
 60 1 1 1.50277 -0.59947 75.7249 0 0 0
 61 1 1 1.00772 -1.63602 76.9816 0 0 0
 62 1 1 -0.226442 -1.82837 78.2001 0 0 0
 63 1 1 -1.12584 -1.00964 79.4118 0 0 0
 64 1 1 -0.966016 0.186971 80.6617 0 0 0
 65 1 1 0.0433231 0.822939 81.8718 0 0 0
 66 1 1 1.21316 0.451417 83.0475 0 0 0
 67 1 1 1.63383 -0.548231 84.3676 0 0 0
 68 1 1 1.02504 -1.52006 85.6333 0 0 0
 69 1 1 -0.151653 -1.68952 86.9106 0 0 0
 70 1 1 -0.957076 -0.909264 88.1953 0 0 0
 71 1 1 -0.782455 0.306997 89.4107 0 0 0
 72 1 1 0.255185 0.903286 90.5925 0 0 0
 73 1 1 1.34408 0.478155 91.879 0 0 0
 74 1 1 1.6871 -0.652776 93.1472 0 0 0
 75 1 1 0.933773 -1.63513 94.38 0 0 0
 76 1 1 -0.254035 -1.70481 95.6111 0 0 0
 77 1 1 -1.0732 -0.839042 96.8123 0 0 0
 78 1 1 -0.860303 0.331272 98.0107 0 0 0
 79 1 1 0.173524 0.823459 99.3175 0 0 0
 80 1 1 1.22354 0.383599 100.573 0 0 0
 81 1 1 1.43507 -0.742336 101.835 0 0 0
 82 1 1 0.617984 -1.64767 103.086 0 0 0
 83 1 1 -0.600788 -1.55347 104.305 0 0 0
 84 1 1 -1.17283 -0.62414 105.652 0 0 0
 85 1 1 -0.694976 0.525035 106.877 0 0 0
 86 1 1 0.429378 0.825591 108.107 0 0 0
 87 1 1 1.3779 0.0707977 109.338 0 0 0
 88 1 1 1.45536 -1.04353 110.662 0 0 0
 89 1 1 0.613774 -1.76996 111.953 0 0 0
 90 1 1 -0.642062 -1.61886 113.093 0 0 0
 91 1 1 -1.29693 -0.560219 114.27 0 0 0
 92 1 1 -1.18556 -0.124326 115.892 0 0 0
 93 1 1 -0.139256 0.867805 116.869 0 0 0
 94 1 1 0.0280266 1.10304 118.542 0 0 0
 95 1 1 1.19115 0.791847 119.707 0 0 0
 96 1 3 1.20927 0.7339 121.308 0 0 0
 97 1 3 2.27217 -0.0284097 122.281 0 0 0
 98 1 3 2.45 -0.425 123.881 0 0 0
 99 1 2 2.74908 1.65944 -0.0198436 0 0 0
 100 1 2 1.4243 0.376849 -0.379552 0 0 0
 101 1 2 1.67077 1.47526 1.84036 0 0 0
 102 1 2 3.23882 0.715196 1.98731 0 0 0
 103 1 2 0.628824 -0.777128 2.08631 0 0 0
 104 1 2 2.27998 -1.47138 2.47207 0 0 0
 105 1 2 1.64901 0.620435 4.23848 0 0 0
 106 1 2 2.40635 -0.88419 4.53884 0 0 0
 107 1 2 -0.673878 -0.686644 4.96222 0 0 0
 108 1 2 0.423311 -2.09573 5.16302 0 0 0
 109 1 2 1.20495 -0.324082 7.06581 0 0 0
 110 1 2 0.39143 -1.90501 7.38531 0 0 0
 111 1 2 -1.29614 0.576214 7.54729 0 0 0
 112 1 2 -1.68287 -1.10612 7.80421 0 0 0
 113 1 2 -0.0161182 -0.688253 9.87949 0 0 0
 114 1 2 -1.75842 -0.795657 9.92161 0 0 0
 115 1 2 -0.464961 2.11616 10.3893 0 0 0
 116 1 2 -2.16947 1.39734 10.5146 0 0 0
 117 1 2 -0.929343 0.126111 12.294 0 0 0
 118 1 2 -1.9804 1.53821 12.5173 0 0 0
 119 1 2 1.06444 2.05612 13.0782 0 0 0
 120 1 2 -0.272974 3.16632 13.2411 0 0 0
 121 1 2 -0.924684 1.35506 15.1554 0 0 0
 122 1 2 -0.324874 3.01985 15.2165 0 0 0
 123 1 2 1.93197 1.01193 15.5374 0 0 0
 124 1 2 1.66158 2.73035 15.9415 0 0 0
 125 1 2 0.642479 2.20319 18.0975 0 0 0
 126 1 2 2.30821 2.199 17.9296 0 0 0
 127 1 2 1.0751 -0.616898 18.4426 0 0 0
 128 1 2 2.79002 -0.102937 18.5853 0 0 0
 129 1 2 1.45817 1.24764 20.5258 0 0 0
 130 1 2 2.68499 0.104008 20.6395 0 0 0
 131 1 2 -0.0925191 -1.29548 21.0968 0 0 0
 132 1 2 1.62615 -1.7771 21.2233 0 0 0
 133 1 2 1.6685 -0.493051 23.4667 0 0 0
 134 1 2 1.13388 -2.00578 23.1868 0 0 0
 135 1 2 -1.47774 -0.900604 23.5178 0 0 0
 136 1 2 -0.667164 -2.19178 24.1576 0 0 0
 137 1 2 0.19685 -1.06602 26.0982 0 0 0
 138 1 2 -1.24144 -1.86689 26.02 0 0 0
 139 1 2 -1.21484 1.25424 26.4632 0 0 0
 140 1 2 -2.59915 0.100571 26.4542 0 0 0
 141 1 2 -2.08702 -0.270475 28.7888 0 0 0
 142 1 2 -2.30924 1.41124 28.2388 0 0 0
 143 1 2 -0.49974 2.48784 29.0264 0 0 0
 144 1 2 -1.48891 1.80097 30.2318 0 0 0
 145 1 2 0.50715 2.31776 31.2614 0 0 0
 146 1 2 1.36998 1.7376 30.0134 0 0 0
 147 1 2 2.14616 -0.116258 31.3002 0 0 0
 148 1 2 2.0953 1.22021 32.359 0 0 0
 149 1 2 2.16255 -0.707461 33.6697 0 0 0
 150 1 2 1.34576 -1.64187 32.4808 0 0 0
 151 1 2 -0.684403 -1.84327 33.7872 0 0 0
 152 1 2 0.723081 -1.93963 34.8422 0 0 0
 153 1 2 -1.06552 -1.75786 36.142 0 0 0
 154 1 2 -2.04798 -0.733475 35.0673 0 0 0
 155 1 2 -1.81811 1.17657 36.4426 0 0 0
 156 1 2 -2.18684 -0.159368 37.4568 0 0 0
 157 1 2 -1.3383 1.83149 38.5949 0 0 0
 158 1 2 -0.0328343 1.97624 37.647 0 0 0
 159 1 2 1.56232 1.29117 38.9874 0 0 0
 160 1 2 0.439076 2.07984 39.9804 0 0 0
 161 1 2 1.82596 0.89952 41.2226 0 0 0
 162 1 2 2.04785 -0.476891 40.0979 0 0 0
 163 1 2 0.863749 -1.88511 41.2694 0 0 0
 164 1 2 1.92472 -1.03214 42.3288 0 0 0
 165 1 2 0.373066 -2.21008 43.6879 0 0 0
 166 1 2 -0.846392 -2.13986 42.5825 0 0 0
 167 1 2 -1.98267 -0.595371 43.8144 0 0 0
 168 1 2 -1.50918 -1.85549 44.8403 0 0 0
 169 1 2 -2.26479 -0.0921775 45.9775 0 0 0
 170 1 2 -1.64802 1.2075 45.0723 0 0 0
 171 1 2 -0.316386 2.02405 46.4425 0 0 0
 172 1 2 -1.45477 1.33954 47.4755 0 0 0
 173 1 2 0.322577 1.89502 48.8972 0 0 0
 174 1 2 1.47486 1.54411 47.7516 0 0 0
 175 1 2 2.01818 -0.501047 48.598 0 0 0
 176 1 2 1.85989 0.750169 49.7979 0 0 0
 177 1 2 1.92088 -1.12358 51.0789 0 0 0
 178 1 2 0.949829 -1.9788 50.0363 0 0 0
 179 1 2 -0.94859 -2.13 51.3051 0 0 0
 180 1 2 0.427711 -2.21155 52.2272 0 0 0
 181 1 2 -1.36149 -1.89097 53.7192 0 0 0
 182 1 2 -2.07803 -0.843117 52.7473 0 0 0
 183 1 2 -1.54314 1.12228 53.8929 0 0 0
 184 1 2 -2.20516 -0.191626 54.8937 0 0 0
 185 1 2 -1.26206 1.62689 56.2225 0 0 0
 186 1 2 0.0350182 1.75211 55.0993 0 0 0
 187 1 2 1.66406 1.12104 56.5028 0 0 0
 188 1 2 0.577309 1.89375 57.5008 0 0 0
 189 1 2 2.12791 0.575627 58.621 0 0 0
 190 1 2 2.03764 -0.751458 57.4975 0 0 0
 191 1 2 1.05449 -2.16804 58.8077 0 0 0
 192 1 2 1.99014 -1.39907 59.9065 0 0 0
 193 1 2 0.528675 -2.36458 61.1591 0 0 0
 194 1 2 -0.90522 -2.23227 60.0517 0 0 0
 195 1 2 -1.95502 -0.580368 61.2353 0 0 0
 196 1 2 -1.4144 -1.81434 62.328 0 0 0
 197 1 2 -2.09611 -0.034147 63.5998 0 0 0
 198 1 2 -1.50306 1.17033 62.4734 0 0 0
 199 1 2 -0.0362362 2.00387 63.9702 0 0 0
 200 1 2 -1.24868 1.313 64.9436 0 0 0
 201 1 2 0.728665 1.66699 66.2406 0 0 0
 202 1 2 1.75446 0.756162 65.0688 0 0 0
 203 1 2 1.92764 -1.10266 66.3024 0 0 0
 204 1 2 2.16408 0.301704 67.3029 0 0 0
 205 1 2 1.79892 -1.74298 68.5412 0 0 0
 206 1 2 0.662818 -2.31831 67.521 0 0 0
 207 1 2 -1.02919 -2.226 68.9591 0 0 0
 208 1 2 0.342418 -2.56188 69.7783 0 0 0
 209 1 2 -1.50094 -1.76513 71.1869 0 0 0
 210 1 2 -1.85886 -0.502772 70.103 0 0 0
 211 1 2 -1.40139 1.02774 71.5163 0 0 0
 212 1 2 -1.88982 -0.214194 72.5166 0 0 0
 213 1 2 -0.757835 1.3425 73.8108 0 0 0
 214 1 2 0.528052 1.58285 72.5996 0 0 0
 215 1 2 2.0017 0.565354 73.8701 0 0 0
 216 1 2 1.05641 1.45381 75.0157 0 0 0
 217 1 2 2.19685 0.088199 76.2491 0 0 0
 218 1 2 2.27129 -1.18542 75.2629 0 0 0
 219 1 2 1.04966 -2.56892 76.4047 0 0 0
 220 1 2 1.90659 -1.64347 77.5497 0 0 0
 221 1 2 0.262978 -2.73387 78.7232 0 0 0
 222 1 2 -1.06983 -2.37566 77.6119 0 0 0
 223 1 2 -1.96189 -0.547792 78.8718 0 0 0
 224 1 2 -1.48903 -1.88213 79.9642 0 0 0
 225 1 2 -1.85988 -0.131764 81.2083 0 0 0
 226 1 2 -1.46406 1.0531 80.1686 0 0 0
 227 1 2 0.627678 1.54358 81.3319 0 0 0
 228 1 2 -0.591367 1.45848 82.4971 0 0 0
 229 1 2 1.31911 1.45059 83.5091 0 0 0
 230 1 2 2.13655 0.342595 82.4956 0 0 0
 231 1 2 2.0897 -1.27829 83.7635 0 0 0
 232 1 2 2.44083 -0.00231934 84.7962 0 0 0
 233 1 2 1.96381 -1.76462 86.1321 0 0 0
 234 1 2 0.739397 -2.4828 85.1524 0 0 0
 235 1 2 -0.969161 -2.01587 86.2479 0 0 0
 236 1 2 0.258284 -2.61519 87.3623 0 0 0
 237 1 2 -1.42251 -1.71743 88.7393 0 0 0
 238 1 2 -1.885 -0.435572 87.8023 0 0 0
 239 1 2 -0.818601 1.21546 88.8583 0 0 0
 240 1 2 -1.82479 0.329961 89.8732 0 0 0
 241 1 2 -0.515663 1.54987 91.0721 0 0 0
 242 1 2 0.842762 1.61423 90.0262 0 0 0
 243 1 2 2.35238 0.320681 91.3313 0 0 0
 244 1 2 1.46303 1.4898 92.2655 0 0 0
 245 1 2 2.36021 0.00611959 93.7785 0 0 0
 246 1 2 2.41312 -1.41043 92.7268 0 0 0
 247 1 2 0.74524 -2.63564 93.9801 0 0 0
 248 1 2 1.80912 -1.79612 94.9914 0 0 0
 249 1 2 0.0176877 -2.65631 96.2018 0 0 0
 250 1 2 -1.16869 -1.99984 95.1331 0 0 0
 251 1 2 -1.81763 -0.309424 96.1299 0 0 0
 252 1 2 -1.70062 -1.54986 97.4359 0 0 0
 253 1 2 -1.69397 0.0244788 98.5908 0 0 0
 254 1 2 -0.988144 1.38665 97.5392 0 0 0
 255 1 2 0.868117 1.41965 98.7638 0 0 0
 256 1 2 -0.405835 1.64547 99.8071 0 0 0
 257 1 2 1.333 1.32636 101.092 0 0 0
 258 1 2 2.24043 0.175096 100.273 0 0 0
 259 1 2 1.9617 -1.5912 101.363 0 0 0
 260 1 2 2.23392 -0.221941 102.372 0 0 0
 261 1 2 1.60745 -2.03218 103.504 0 0 0
 262 1 2 0.145753 -2.49623 102.556 0 0 0
 263 1 2 -1.61964 -1.64562 103.846 0 0 0
 264 1 2 -0.546148 -2.52935 104.698 0 0 0
 265 1 2 -1.77281 -1.43964 106.04 0 0 0
 266 1 2 -1.90688 -0.0602452 105.09 0 0 0
 267 1 2 -0.791524 1.49699 106.401 0 0 0
 268 1 2 -1.74579 0.616627 107.41 0 0 0
 269 1 2 -0.211578 1.52133 108.668 0 0 0
 270 1 2 1.19168 1.47538 107.739 0 0 0
 271 1 2 2.26214 -0.277969 108.769 0 0 0
 272 1 2 1.73124 0.993852 109.882 0 0 0
 273 1 2 2.38636 -0.533407 111.117 0 0 0
 274 1 2 1.80067 -1.91518 110.125 0 0 0
 275 1 2 0.0942873 -2.57349 111.378 0 0 0
 276 1 2 1.39074 -2.30913 112.517 0 0 0
 277 1 2 -0.622863 -2.507 113.728 0 0 0
 278 1 2 -1.57937 -1.80977 112.543 0 0 0
 279 1 2 -1.66557 0.398386 113.803 0 0 0
 280 1 2 -2.21486 -1.28643 114.349 0 0 0
 281 1 2 -1.49056 -0.986526 116.432 0 0 0
 282 1 2 -2.03216 0.546868 115.845 0 0 0
 283 1 2 0.89092 0.826899 116.548 0 0 0
 284 1 2 -0.57578 1.83274 116.535 0 0 0
 285 1 2 -1.00265 0.892618 118.95 0 0 0
 286 1 2 0.204675 2.17355 118.707 0 0 0
 287 1 2 1.53831 -0.22516 119.521 0 0 0
 288 1 2 1.91391 1.50656 119.465 0 0 0
 289 1 2 0.146052 0.555089 121.613 0 0 0
 290 1 2 1.23494 1.82877 121.561 0 0 0
 291 1 2 2.30628 -1.03059 121.841 0 0 0
 292 1 2 3.19428 0.484093 122.19 0 0 0
 293 1 2 2.99993 0.438007 124.308 0 0 0
 294 1 2 2.90644 -1.3706 123.725 0 0 0
 295 2 4 -2.44184 0.214607 -0.0123869 0 0 0
 296 2 4 -1.57836 1.13645 1.06351 0 0 0
 297 2 4 -1.64281 1.16699 2.7258 0 0 0
 298 2 1 -0.585529 1.93414 3.74739 0 0 0
 299 2 1 -0.39175 2.03166 5.39575 0 0 0
 300 2 1 0.897311 2.01022 6.47165 0 0 0
 301 2 1 1.02606 1.875 8.11106 0 0 0
 302 2 1 1.95137 0.95908 9.18658 0 0 0
 303 2 1 1.89013 0.674669 10.796 0 0 0
 304 2 1 1.49189 -0.517381 11.9209 0 0 0
 305 2 1 1.3334 -0.548083 13.572 0 0 0
 306 2 1 0.11573 -0.916706 14.552 0 0 0
 307 2 1 -0.199277 -0.998067 16.213 0 0 0
 308 2 1 -1.01902 -0.0660658 17.2854 0 0 0
 309 2 1 -1.24253 -0.0572515 18.8985 0 0 0
 310 2 1 -1.10713 1.13081 20.0137 0 0 0
 311 2 1 -1.08365 1.21618 21.6529 0 0 0
 312 2 1 0.0152431 1.81428 22.7502 0 0 0
 313 2 1 0.0652594 1.70203 24.4316 0 0 0
 314 2 1 1.09028 1.07315 25.6217 0 0 0
 315 2 1 1.07766 0.87949 27.3293 0 0 0
 316 2 1 1.04144 -0.333124 28.4717 0 0 0
 317 2 1 0.125944 -1.04226 29.7399 0 0 0
 318 2 1 -0.84142 -0.753916 31.1228 0 0 0
 319 2 1 -1.24387 0.314999 32.4282 0 0 0
 320 2 1 -0.57348 1.28007 33.7032 0 0 0
 321 2 1 0.541976 1.28408 34.9908 0 0 0
 322 2 1 1.30191 0.322692 36.2051 0 0 0
 323 2 1 1.00036 -0.818378 37.3787 0 0 0
 324 2 1 0.0802143 -1.33464 38.6429 0 0 0
 325 2 1 -1.01219 -0.987314 39.8701 0 0 0
 326 2 1 -1.32827 0.136237 41.1402 0 0 0
 327 2 1 -0.663441 1.1021 42.3879 0 0 0
 328 2 1 0.486396 1.13141 43.5869 0 0 0
 329 2 1 1.17842 0.261993 44.9383 0 0 0
 330 2 1 0.948951 -0.959692 46.1262 0 0 0
 331 2 1 -0.138461 -1.41435 47.3468 0 0 0
 332 2 1 -1.12809 -0.92117 48.6313 0 0 0
 333 2 1 -1.31642 0.206338 49.9794 0 0 0
 334 2 1 -0.514119 1.06883 51.281 0 0 0
 335 2 1 0.641872 0.956396 52.5314 0 0 0
 336 2 1 1.29263 -0.00254331 53.788 0 0 0
 337 2 1 1.00244 -1.2377 54.8754 0 0 0
 338 2 1 -0.048602 -1.62341 56.185 0 0 0
 339 2 1 -0.99529 -1.05086 57.4976 0 0 0
 340 2 1 -1.11052 0.168193 58.751 0 0 0
 341 2 1 -0.343709 1.00145 60.0057 0 0 0
 342 2 1 0.811801 0.812343 61.2259 0 0 0
 343 2 1 1.32994 -0.0949707 62.4991 0 0 0
 344 2 1 0.923645 -1.20527 63.7868 0 0 0
 345 2 1 -0.284597 -1.66872 64.9831 0 0 0
 346 2 1 -1.24836 -0.896695 66.242 0 0 0
 347 2 1 -1.20775 0.229391 67.542 0 0 0
 348 2 1 -0.202474 0.914862 68.7549 0 0 0
 349 2 1 0.89831 0.624044 70.0449 0 0 0
 350 2 1 1.44146 -0.388383 71.2923 0 0 0
 351 2 1 1.029 -1.53022 72.5331 0 0 0
 352 2 1 0.0057727 -1.79469 73.8463 0 0 0
 353 2 1 -0.965177 -1.03216 75.038 0 0 0
 354 2 1 -0.902016 0.144059 76.3009 0 0 0
 355 2 1 -0.00120394 0.841854 77.5159 0 0 0
 356 2 1 1.00446 0.476776 78.8067 0 0 0
 357 2 1 1.46508 -0.644261 79.9984 0 0 0
 358 2 1 0.879937 -1.57786 81.2933 0 0 0
 359 2 1 -0.166442 -1.76539 82.586 0 0 0
 360 2 1 -0.996518 -0.897813 83.7744 0 0 0
 361 2 1 -0.89599 0.222481 85.0757 0 0 0
 362 2 1 0.0833652 0.881468 86.2987 0 0 0
 363 2 1 1.27851 0.51553 87.4698 0 0 0
 364 2 1 1.6287 -0.566826 88.7382 0 0 0
 365 2 1 1.05083 -1.55952 89.9648 0 0 0
 366 2 1 -0.0285738 -1.76972 91.2397 0 0 0
 367 2 1 -0.91039 -0.881414 92.3823 0 0 0
 368 2 1 -0.838299 0.244211 93.678 0 0 0
 369 2 1 0.196091 0.880368 94.9379 0 0 0
 370 2 1 1.30192 0.308832 96.1177 0 0 0
 371 2 1 1.54537 -0.71408 97.476 0 0 0
 372 2 1 0.814417 -1.64329 98.7357 0 0 0
 373 2 1 -0.434686 -1.68574 99.9701 0 0 0
 374 2 1 -1.17885 -0.759226 101.221 0 0 0
 375 2 1 -0.915727 0.4138 102.385 0 0 0
 376 2 1 0.101083 0.903506 103.691 0 0 0
 377 2 1 1.17185 0.332342 104.87 0 0 0
 378 2 1 1.46582 -0.896956 106.024 0 0 0
 379 2 1 0.677576 -1.79841 107.297 0 0 0
 380 2 1 -0.350678 -1.69702 108.639 0 0 0
 381 2 1 -1.06615 -0.708091 109.798 0 0 0
 382 2 1 -0.919169 0.388891 111.044 0 0 0
 383 2 1 0.21048 0.955757 112.175 0 0 0
 384 2 1 0.819406 0.721158 113.701 0 0 0
 385 2 1 1.56007 -0.416238 114.72 0 0 0
 386 2 1 1.0706 -1.61401 115.755 0 0 0
 387 2 1 0.996073 -1.76316 117.414 0 0 0
 388 2 1 -0.270048 -1.90856 118.496 0 0 0
 389 2 1 -0.409088 -1.92048 120.177 0 0 0
 390 2 3 -1.5759 -1.21818 121.157 0 0 0
 391 2 3 -1.66522 -1.30343 122.77 0 0 0
 392 2 3 -2.45 -0.425 123.881 0 0 0
 393 2 2 -3.49615 0.573099 0.214794 0 0 0
 394 2 2 -2.18771 0.396847 -1.03112 0 0 0
 395 2 2 -1.91554 2.16421 0.734396 0 0 0
 396 2 2 -0.536066 0.965244 0.716004 0 0 0
 397 2 2 -2.55488 1.70681 2.91425 0 0 0
 398 2 2 -1.81333 0.0914977 3.02404 0 0 0
 399 2 2 -0.953172 3.00027 3.56159 0 0 0
 400 2 2 0.332807 1.89734 3.3039 0 0 0
 401 2 2 -1.05148 2.91476 5.6375 0 0 0
 402 2 2 -1.02838 1.26167 5.69056 0 0 0
 403 2 2 1.17806 3.01708 6.38266 0 0 0
 404 2 2 1.7506 1.35377 6.16375 0 0 0
 405 2 2 1.34076 2.8449 8.45644 0 0 0
 406 2 2 0.01046 1.88377 8.40207 0 0 0
 407 2 2 2.89785 1.49378 9.1577 0 0 0
 408 2 2 2.24594 -0.0353477 8.81715 0 0 0
 409 2 2 2.9666 0.745379 11.0945 0 0 0
 410 2 2 1.38222 1.6105 11.2575 0 0 0
 411 2 2 2.40025 -1.07884 11.9203 0 0 0
 412 2 2 0.73703 -1.16556 11.5965 0 0 0
 413 2 2 2.03075 -1.36089 13.759 0 0 0
 414 2 2 1.83589 0.343351 13.7968 0 0 0
 415 2 2 0.15366 -2.00975 14.3989 0 0 0
 416 2 2 -0.834361 -0.469705 14.1341 0 0 0
 417 2 2 -0.801609 -1.88792 16.2429 0 0 0
 418 2 2 0.710455 -1.3533 16.5622 0 0 0
 419 2 2 -2.03597 -0.380732 16.9405 0 0 0
 420 2 2 -0.932268 0.953897 16.9216 0 0 0
 421 2 2 -2.30427 -0.282428 18.9146 0 0 0
 422 2 2 -0.915933 -1.07533 19.2024 0 0 0
 423 2 2 -2.10984 1.56004 19.8518 0 0 0
 424 2 2 -0.440581 1.94808 19.716 0 0 0
 425 2 2 -1.89704 1.83899 21.8146 0 0 0
 426 2 2 -1.48055 0.172447 21.8392 0 0 0
 427 2 2 0.000203458 2.88128 22.5739 0 0 0
 428 2 2 1.02364 1.56821 22.4724 0 0 0
 429 2 2 0.0553812 2.74841 24.8725 0 0 0
 430 2 2 -0.979227 1.41101 24.4655 0 0 0
 431 2 2 1.94222 1.73442 25.3992 0 0 0
 432 2 2 1.51448 0.165199 25.2364 0 0 0
 433 2 2 2.20306 0.803881 27.301 0 0 0
 434 2 2 0.971546 1.86319 27.8263 0 0 0
 435 2 2 2.03023 -0.112757 28.9843 0 0 0
 436 2 2 1.2398 -1.1986 27.8855 0 0 0
 437 2 2 -0.597029 -1.56925 29.1495 0 0 0
 438 2 2 0.942984 -1.74049 30.0831 0 0 0
 439 2 2 -0.686331 -1.74947 31.6341 0 0 0
 440 2 2 -1.81528 -0.878077 30.6118 0 0 0
 441 2 2 -2.0769 0.988215 32.0481 0 0 0
 442 2 2 -1.91656 -0.322608 32.9271 0 0 0
 443 2 2 -1.52679 1.48142 34.2196 0 0 0
 444 2 2 -0.365863 2.20758 33.1963 0 0 0
 445 2 2 1.46187 1.76727 34.6293 0 0 0
 446 2 2 0.113536 2.08537 35.522 0 0 0
 447 2 2 1.67451 1.16331 36.798 0 0 0
 448 2 2 2.20574 -0.0117644 35.5881 0 0 0
 449 2 2 1.13698 -1.79972 36.8075 0 0 0
 450 2 2 1.95936 -0.77524 37.9537 0 0 0
 451 2 2 0.767799 -1.98435 39.2 0 0 0
 452 2 2 -0.477949 -2.03762 38.1122 0 0 0
 453 2 2 -1.97517 -0.926126 39.3315 0 0 0
 454 2 2 -1.18029 -1.92447 40.4195 0 0 0
 455 2 2 -2.04474 -0.468896 41.6948 0 0 0
 456 2 2 -1.95242 0.753317 40.5077 0 0 0
 457 2 2 -0.320831 1.98652 41.84 0 0 0
 458 2 2 -1.63839 1.46019 42.828 0 0 0
 459 2 2 0.105853 2.00931 44.118 0 0 0
 460 2 2 1.40509 1.542 43.1115 0 0 0
 461 2 2 2.10938 -0.110729 44.4877 0 0 0
 462 2 2 1.57157 1.13254 45.5595 0 0 0
 463 2 2 1.98033 -0.832914 46.622 0 0 0
 464 2 2 1.06901 -1.92955 45.6538 0 0 0
 465 2 2 -0.816131 -2.12654 46.8099 0 0 0
 466 2 2 0.565928 -2.07492 47.8739 0 0 0
 467 2 2 -1.21358 -1.81066 49.2632 0 0 0
 468 2 2 -2.07665 -0.713594 48.1484 0 0 0
 469 2 2 -1.81295 1.13493 49.5593 0 0 0
 470 2 2 -2.29497 -0.24496 50.4203 0 0 0
 471 2 2 -1.37982 1.31733 51.8351 0 0 0
 472 2 2 -0.164342 2.09714 50.9151 0 0 0
 473 2 2 1.52148 1.12752 51.9119 0 0 0
 474 2 2 0.428714 1.92632 53.1207 0 0 0
 475 2 2 1.90393 0.694914 54.4151 0 0 0
 476 2 2 2.05554 -0.444108 53.1821 0 0 0
 477 2 2 1.08026 -2.13032 54.2553 0 0 0
 478 2 2 1.92283 -1.20961 55.3879 0 0 0
 479 2 2 0.493389 -2.45503 56.5795 0 0 0
 480 2 2 -0.827999 -2.21708 55.7017 0 0 0
 481 2 2 -1.94974 -0.857332 56.972 0 0 0
 482 2 2 -1.22116 -1.99501 58.0128 0 0 0
 483 2 2 -1.93923 -0.202757 59.326 0 0 0
 484 2 2 -1.51384 0.981677 58.1756 0 0 0
 485 2 2 0.192798 1.87291 59.5895 0 0 0
 486 2 2 -1.21262 1.47319 60.5535 0 0 0
 487 2 2 0.539811 1.75436 61.6887 0 0 0
 488 2 2 1.82079 0.968634 60.7826 0 0 0
 489 2 2 1.81645 -0.868576 61.9625 0 0 0
 490 2 2 2.0637 0.588735 62.9915 0 0 0
 491 2 2 1.90673 -1.17617 64.3105 0 0 0
 492 2 2 1.11953 -2.12165 63.165 0 0 0
 493 2 2 -1.08057 -2.20032 64.5148 0 0 0
 494 2 2 0.135747 -2.52924 65.4983 0 0 0
 495 2 2 -1.55603 -1.78581 66.8454 0 0 0
 496 2 2 -2.18974 -0.544206 65.8074 0 0 0
 497 2 2 -1.31833 1.18661 67.0568 0 0 0
 498 2 2 -2.13475 0.167462 68.0451 0 0 0
 499 2 2 -0.852858 1.50245 69.326 0 0 0
 500 2 2 0.427864 1.57365 68.181 0 0 0
 501 2 2 1.8358 0.739845 69.4244 0 0 0
 502 2 2 0.697854 1.5752 70.5145 0 0 0
 503 2 2 2.18933 0.333826 71.781 0 0 0
 504 2 2 1.99723 -1.09152 70.7587 0 0 0
 505 2 2 0.68166 -2.37263 71.9464 0 0 0
 506 2 2 1.97987 -1.78106 72.9758 0 0 0
 507 2 2 0.571267 -2.54402 74.37 0 0 0
 508 2 2 -0.659896 -2.55702 73.26 0 0 0
 509 2 2 -1.78742 -0.704058 74.3936 0 0 0
 510 2 2 -1.3466 -1.86671 75.5728 0 0 0
 511 2 2 -1.80949 0.0587489 76.8993 0 0 0
 512 2 2 -1.11224 1.08563 75.764 0 0 0
 513 2 2 0.554271 1.61655 77.028 0 0 0
 514 2 2 -0.832978 1.26005 78.1007 0 0 0
 515 2 2 0.971321 1.48239 79.2762 0 0 0
 516 2 2 1.93109 0.319598 78.2598 0 0 0
 517 2 2 2.18924 -1.37867 79.583 0 0 0
 518 2 2 2.24015 -0.0826453 80.4872 0 0 0
 519 2 2 1.75862 -1.98012 81.7286 0 0 0
 520 2 2 0.68901 -2.55 80.739 0 0 0
 521 2 2 -1.10759 -2.0399 82.0291 0 0 0
 522 2 2 0.177729 -2.66759 83.1808 0 0 0
 523 2 2 -1.34985 -1.80999 84.3719 0 0 0
 524 2 2 -1.81591 -0.563493 83.2718 0 0 0
 525 2 2 -1.08854 1.16837 84.4979 0 0 0
 526 2 2 -1.85487 -0.0484898 85.6029 0 0 0
 527 2 2 -0.69943 1.41446 86.8452 0 0 0
 528 2 2 0.721829 1.64922 85.7245 0 0 0
 529 2 2 2.26651 0.342176 86.9916 0 0 0
 530 2 2 1.34985 1.56048 87.8885 0 0 0
 531 2 2 2.36855 0.126539 89.2617 0 0 0
 532 2 2 2.31547 -1.34748 88.3326 0 0 0
 533 2 2 0.96901 -2.55369 89.5013 0 0 0
 534 2 2 2.01382 -1.72534 90.5445 0 0 0
 535 2 2 0.596871 -2.49736 91.7698 0 0 0
 536 2 2 -0.831182 -2.30242 90.7057 0 0 0
 537 2 2 -1.75989 -0.374677 91.9195 0 0 0
 538 2 2 -1.3773 -1.69807 92.9035 0 0 0
 539 2 2 -1.83162 0.0442121 94.0696 0 0 0
 540 2 2 -1.02141 1.16329 93.2171 0 0 0
 541 2 2 0.847006 1.5854 94.3235 0 0 0
 542 2 2 -0.466875 1.52506 95.563 0 0 0
 543 2 2 1.32481 1.32223 96.6644 0 0 0
 544 2 2 2.34546 0.276789 95.7456 0 0 0
 545 2 2 2.17683 -1.45681 97.0303 0 0 0
 546 2 2 2.30978 -0.0782082 98.082 0 0 0
 547 2 2 1.6805 -1.98025 99.2525 0 0 0
 548 2 2 0.465534 -2.5815 98.1814 0 0 0
 549 2 2 -1.32613 -2.05797 99.4864 0 0 0
 550 2 2 -0.114494 -2.62003 100.48 0 0 0
 551 2 2 -1.70681 -1.56903 101.639 0 0 0
 552 2 2 -1.85114 -0.21703 100.586 0 0 0
 553 2 2 -1.08239 1.38203 101.853 0 0 0
 554 2 2 -1.8471 0.260911 102.979 0 0 0
 555 2 2 -0.54783 1.5149 104.343 0 0 0
 556 2 2 0.766303 1.67838 103.232 0 0 0
 557 2 2 2.12469 0.261756 104.293 0 0 0
 558 2 2 1.35418 1.27776 105.419 0 0 0
 559 2 2 2.28889 -0.517656 106.587 0 0 0
 560 2 2 1.93083 -1.70442 105.435 0 0 0
 561 2 2 0.158711 -2.54805 106.731 0 0 0
 562 2 2 1.50799 -2.37098 107.766 0 0 0
 563 2 2 0.114169 -2.58634 109.132 0 0 0
 564 2 2 -1.25864 -2.05128 108.12 0 0 0
 565 2 2 -1.92105 -0.355061 109.216 0 0 0
 566 2 2 -1.52891 -1.611 110.232 0 0 0
 567 2 2 -1.9009 0.230628 111.55 0 0 0
 568 2 2 -1.12829 1.35903 110.56 0 0 0
 569 2 2 0.99557 1.41918 111.58 0 0 0
 570 2 2 -0.384797 1.7947 112.4 0 0 0
 571 2 2 0.324954 1.48386 114.38 0 0 0
 572 2 2 1.82828 1.16738 113.463 0 0 0
 573 2 2 2.06901 -0.947097 113.942 0 0 0
 574 2 2 2.31776 0.0942435 115.275 0 0 0
 575 2 2 1.93681 -2.2556 115.65 0 0 0
 576 2 2 0.259823 -2.20648 115.371 0 0 0
 577 2 2 1.51491 -2.76398 117.565 0 0 0
 578 2 2 1.71249 -1.02894 117.707 0 0 0
 579 2 2 -0.796319 -2.88734 118.237 0 0 0
 580 2 2 -0.938325 -1.07757 118.291 0 0 0
 581 2 2 -0.649507 -3.0518 120.317 0 0 0
 582 2 2 0.525423 -1.81038 120.707 0 0 0
 583 2 2 -2.47438 -1.76062 120.773 0 0 0
 584 2 2 -1.78064 -0.176616 120.844 0 0 0
 585 2 2 -1.76047 -2.34166 122.949 0 0 0
 586 2 2 -0.609623 -1.15455 122.998 0 0 0
 587 2 2 -2.35173 0.610765 123.549 0 0 0
 588 2 2 -2.02566 -0.523541 124.882 0 0 0

Bonds
 
  1 1 1 2
  2 1 2 3
  3 1 3 4
  4 1 4 5
  5 1 5 6
  6 1 6 7
  7 1 7 8
  8 1 8 9
  9 1 9 10
  10 1 10 11
  11 1 11 12
  12 1 12 13
  13 1 13 14
  14 1 14 15
  15 1 15 16
  16 1 16 17
  17 1 17 18
  18 1 18 19
  19 1 19 20
  20 1 20 21
  21 1 21 22
  22 1 22 23
  23 1 23 24
  24 1 24 25
  25 1 25 26
  26 1 26 27
  27 1 27 28
  28 1 28 29
  29 1 29 30
  30 1 30 31
  31 1 31 32
  32 1 32 33
  33 1 33 34
  34 1 34 35
  35 1 35 36
  36 1 36 37
  37 1 37 38
  38 1 38 39
  39 1 39 40
  40 1 40 41
  41 1 41 42
  42 1 42 43
  43 1 43 44
  44 1 44 45
  45 1 45 46
  46 1 46 47
  47 1 47 48
  48 1 48 49
  49 1 49 50
  50 1 50 51
  51 1 51 52
  52 1 52 53
  53 1 53 54
  54 1 54 55
  55 1 55 56
  56 1 56 57
  57 1 57 58
  58 1 58 59
  59 1 59 60
  60 1 60 61
  61 1 61 62
  62 1 62 63
  63 1 63 64
  64 1 64 65
  65 1 65 66
  66 1 66 67
  67 1 67 68
  68 1 68 69
  69 1 69 70
  70 1 70 71
  71 1 71 72
  72 1 72 73
  73 1 73 74
  74 1 74 75
  75 1 75 76
  76 1 76 77
  77 1 77 78
  78 1 78 79
  79 1 79 80
  80 1 80 81
  81 1 81 82
  82 1 82 83
  83 1 83 84
  84 1 84 85
  85 1 85 86
  86 1 86 87
  87 1 87 88
  88 1 88 89
  89 1 89 90
  90 1 90 91
  91 1 91 92
  92 1 92 93
  93 1 93 94
  94 1 94 95
  95 1 95 96
  96 1 96 97
  97 1 97 98
  98 1 295 296
  99 1 296 297
  100 1 297 298
  101 1 298 299
  102 1 299 300
  103 1 300 301
  104 1 301 302
  105 1 302 303
  106 1 303 304
  107 1 304 305
  108 1 305 306
  109 1 306 307
  110 1 307 308
  111 1 308 309
  112 1 309 310
  113 1 310 311
  114 1 311 312
  115 1 312 313
  116 1 313 314
  117 1 314 315
  118 1 315 316
  119 1 316 317
  120 1 317 318
  121 1 318 319
  122 1 319 320
  123 1 320 321
  124 1 321 322
  125 1 322 323
  126 1 323 324
  127 1 324 325
  128 1 325 326
  129 1 326 327
  130 1 327 328
  131 1 328 329
  132 1 329 330
  133 1 330 331
  134 1 331 332
  135 1 332 333
  136 1 333 334
  137 1 334 335
  138 1 335 336
  139 1 336 337
  140 1 337 338
  141 1 338 339
  142 1 339 340
  143 1 340 341
  144 1 341 342
  145 1 342 343
  146 1 343 344
  147 1 344 345
  148 1 345 346
  149 1 346 347
  150 1 347 348
  151 1 348 349
  152 1 349 350
  153 1 350 351
  154 1 351 352
  155 1 352 353
  156 1 353 354
  157 1 354 355
  158 1 355 356
  159 1 356 357
  160 1 357 358
  161 1 358 359
  162 1 359 360
  163 1 360 361
  164 1 361 362
  165 1 362 363
  166 1 363 364
  167 1 364 365
  168 1 365 366
  169 1 366 367
  170 1 367 368
  171 1 368 369
  172 1 369 370
  173 1 370 371
  174 1 371 372
  175 1 372 373
  176 1 373 374
  177 1 374 375
  178 1 375 376
  179 1 376 377
  180 1 377 378
  181 1 378 379
  182 1 379 380
  183 1 380 381
  184 1 381 382
  185 1 382 383
  186 1 383 384
  187 1 384 385
  188 1 385 386
  189 1 386 387
  190 1 387 388
  191 1 388 389
  192 1 389 390
  193 1 390 391
  194 1 391 392
  195 2 1 99
  196 2 2 101
  197 2 3 103
  198 2 4 105
  199 2 5 107
  200 2 6 109
  201 2 7 111
  202 2 8 113
  203 2 9 115
  204 2 10 117
  205 2 11 119
  206 2 12 121
  207 2 13 123
  208 2 14 125
  209 2 15 127
  210 2 16 129
  211 2 17 131
  212 2 18 133
  213 2 19 135
  214 2 20 137
  215 2 21 139
  216 2 22 141
  217 2 23 143
  218 2 24 145
  219 2 25 147
  220 2 26 149
  221 2 27 151
  222 2 28 153
  223 2 29 155
  224 2 30 157
  225 2 31 159
  226 2 32 161
  227 2 33 163
  228 2 34 165
  229 2 35 167
  230 2 36 169
  231 2 37 171
  232 2 38 173
  233 2 39 175
  234 2 40 177
  235 2 41 179
  236 2 42 181
  237 2 43 183
  238 2 44 185
  239 2 45 187
  240 2 46 189
  241 2 47 191
  242 2 48 193
  243 2 49 195
  244 2 50 197
  245 2 51 199
  246 2 52 201
  247 2 53 203
  248 2 54 205
  249 2 55 207
  250 2 56 209
  251 2 57 211
  252 2 58 213
  253 2 59 215
  254 2 60 217
  255 2 61 219
  256 2 62 221
  257 2 63 223
  258 2 64 225
  259 2 65 227
  260 2 66 229
  261 2 67 231
  262 2 68 233
  263 2 69 235
  264 2 70 237
  265 2 71 239
  266 2 72 241
  267 2 73 243
  268 2 74 245
  269 2 75 247
  270 2 76 249
  271 2 77 251
  272 2 78 253
  273 2 79 255
  274 2 80 257
  275 2 81 259
  276 2 82 261
  277 2 83 263
  278 2 84 265
  279 2 85 267
  280 2 86 269
  281 2 87 271
  282 2 88 273
  283 2 89 275
  284 2 90 277
  285 2 91 279
  286 2 92 281
  287 2 93 283
  288 2 94 285
  289 2 95 287
  290 2 96 289
  291 2 97 291
  292 2 98 293
  293 2 1 100
  294 2 2 102
  295 2 3 104
  296 2 4 106
  297 2 5 108
  298 2 6 110
  299 2 7 112
  300 2 8 114
  301 2 9 116
  302 2 10 118
  303 2 11 120
  304 2 12 122
  305 2 13 124
  306 2 14 126
  307 2 15 128
  308 2 16 130
  309 2 17 132
  310 2 18 134
  311 2 19 136
  312 2 20 138
  313 2 21 140
  314 2 22 142
  315 2 23 144
  316 2 24 146
  317 2 25 148
  318 2 26 150
  319 2 27 152
  320 2 28 154
  321 2 29 156
  322 2 30 158
  323 2 31 160
  324 2 32 162
  325 2 33 164
  326 2 34 166
  327 2 35 168
  328 2 36 170
  329 2 37 172
  330 2 38 174
  331 2 39 176
  332 2 40 178
  333 2 41 180
  334 2 42 182
  335 2 43 184
  336 2 44 186
  337 2 45 188
  338 2 46 190
  339 2 47 192
  340 2 48 194
  341 2 49 196
  342 2 50 198
  343 2 51 200
  344 2 52 202
  345 2 53 204
  346 2 54 206
  347 2 55 208
  348 2 56 210
  349 2 57 212
  350 2 58 214
  351 2 59 216
  352 2 60 218
  353 2 61 220
  354 2 62 222
  355 2 63 224
  356 2 64 226
  357 2 65 228
  358 2 66 230
  359 2 67 232
  360 2 68 234
  361 2 69 236
  362 2 70 238
  363 2 71 240
  364 2 72 242
  365 2 73 244
  366 2 74 246
  367 2 75 248
  368 2 76 250
  369 2 77 252
  370 2 78 254
  371 2 79 256
  372 2 80 258
  373 2 81 260
  374 2 82 262
  375 2 83 264
  376 2 84 266
  377 2 85 268
  378 2 86 270
  379 2 87 272
  380 2 88 274
  381 2 89 276
  382 2 90 278
  383 2 91 280
  384 2 92 282
  385 2 93 284
  386 2 94 286
  387 2 95 288
  388 2 96 290
  389 2 97 292
  390 2 98 294
  391 2 295 393
  392 2 296 395
  393 2 297 397
  394 2 298 399
  395 2 299 401
  396 2 300 403
  397 2 301 405