LAMMPS UA chain data file
 
         588  atoms
         586  bonds
         1164  angles
         1734  dihedrals
           0  impropers
 
           4  atom types
           2  bond types
           3  angle types
           3  dihedral types
           0  improper types
 
    -400.000000     400.000000 xlo xhi
    -400.000000     400.000000 ylo yhi
    -1.3000      125.300000 zlo zhi
 
Masses
 
  1   12.00
  2   1.00
  3   12.00
  4   12.00
 
Atoms

 1 1 4	2.44818 0.535592 -0.024811	0 0 0
 2 1 4	2.12125 0.381566 1.56171	0 0 0
 3 1 4	1.20417 -0.550716 2.52177	0 0 0
 4 1 1	1.1151 -0.594287 4.157	0 0 0
 5 1 1	-0.0267989 -1.25102 5.14551	0 0 0
 6 1 1	-0.0830146 -1.19302 6.77833	0 0 0
 7 1 1	-1.30523 -0.73941 7.79155	0 0 0
 8 1 1	-1.3006 -0.528855 9.42453	0 0 0
 9 1 1	-1.75096 0.640847 10.4938	0 0 0
 10 1 1	-1.05346 1.84987 11.4156	0 0 0
 11 1 1	-0.726682 2.08049 13.0092	0 0 0
 12 1 1	0.620294 1.93073 14.0194	0 0 0
 13 1 1	0.842301 1.90666 15.6024	0 0 0
 14 1 1	1.40898 0.88871 16.738	0 0 0
 15 1 1	0.800898 -0.236427 17.835	0 0 0
 16 1 1	0.633507 -0.294366 19.4856	0 0 0
 17 1 1	-0.661298 -0.645187 20.4294	0 0 0
 18 1 1	-0.926978 -0.589982 22.0482	0 0 0
 19 1 1	-1.52506 0.60647 23.0775	0 0 0
 20 1 1	-1.63086 0.709855 24.7564	0 0 0
 21 1 1	-1.18316 1.97765 25.7622	0 0 0
 22 1 1	-0.044829 2.28601 26.9533	0 0 0
 23 1 1	0.242235 1.99154 28.5844	0 0 0
 24 1 1	1.23188 1.05246 29.5455	0 0 0
 25 1 1	1.26698 0.579808 31.1977	0 0 0
 26 1 1	0.522375 -0.652074 32.0366	0 0 0
 27 1 1	0.460577 -1.11997 33.603	0 0 0
 28 1 1	-0.778528 -1.19664 34.7121	0 0 0
 29 1 1	-1.63298 -0.274466 35.8111	0 0 0
 30 1 1	-1.49821 -0.00190039 37.4008	0 0 0
 31 1 1	-1.11643 1.3104 38.3284	0 0 0
 32 1 1	-0.949992 1.58648 39.9041	0 0 0
 33 1 1	0.284805 1.60691 40.9729	0 0 0
 34 1 1	1.21902 0.637482 41.9642	0 0 0
 35 1 1	1.109 -0.572188 43.0809	0 0 0
 36 1 1	0.440507 -1.22196 44.4265	0 0 0
 37 1 1	-0.812216 -1.00227 45.5456	0 0 0
 38 1 1	-1.50832 0.00932889 46.6611	0 0 0
 39 1 1	-1.18724 1.11515 47.8491	0 0 0
 40 1 1	-0.0826197 1.56783 49.0835	0 0 0
 41 1 1	0.856217 1.02458 50.3794	0 0 0
 42 1 1	1.15584 -0.222308 51.522	0 0 0
 43 1 1	0.43156 -1.09619 52.8041	0 0 0
 44 1 1	-0.754913 -1.08544 54.0411	0 0 0
 45 1 1	-1.39728 -0.138564 55.2794	0 0 0
 46 1 1	-1.04719 0.828612 56.6484	0 0 0
 47 1 1	0.177439 1.29567 57.7864	0 0 0
 48 1 1	1.17868 0.741409 59.055	0 0 0
 49 1 1	1.37528 -0.439493 60.2371	0 0 0
 50 1 1	0.529501 -1.27226 61.4471	0 0 0
 51 1 1	-0.555586 -1.1934 62.74	0 0 0
 52 1 1	-1.22408 -0.178302 63.916	0 0 0
 53 1 1	-0.94757 0.902933 65.1593	0 0 0
 54 1 1	0.180791 1.32689 66.3015	0 0 0
 55 1 1	1.27633 0.712994 67.4352	0 0 0
 56 1 1	1.47201 -0.305143 68.8263	0 0 0
 57 1 1	0.787557 -1.30359 69.9707	0 0 0
 58 1 1	-0.452951 -1.42173 71.0827	0 0 0
 59 1 1	-0.530118 -1.20286 72.7294	0 0 0
 60 1 1	-1.32925 -0.0420835 73.7054	0 0 0
 61 1 1	-1.32377 0.218272 75.2873	0 0 0
 62 1 1	-0.404327 1.17131 76.3316	0 0 0
 63 1 1	-0.331002 1.33394 77.9685	0 0 0
 64 1 1	0.862441 1.30972 79.1007	0 0 0
 65 1 1	1.45545 0.257694 80.2893	0 0 0
 66 1 1	1.38512 0.185321 81.9405	0 0 0
 67 1 1	1.00859 -1.05726 82.9442	0 0 0
 68 1 1	0.741696 -1.27941 84.5515	0 0 0
 69 1 1	-0.647748 -1.12019 85.4982	0 0 0
 70 1 1	-0.977791 -1.09255 87.1444	0 0 0
 71 1 1	-1.83492 -0.0708169 88.1614	0 0 0
 72 1 1	-1.44439 1.16164 89.23	0 0 0
 73 1 1	-1.12567 1.11892 90.8833	0 0 0
 74 1 1	0.122355 1.53965 91.9453	0 0 0
 75 1 1	0.454266 1.32828 93.5704	0 0 0
 76 1 1	1.10333 0.148876 94.5916	0 0 0
 77 1 1	1.16594 0.0195003 96.228	0 0 0
 78 1 1	0.711468 -1.15155 97.3054	0 0 0
 79 1 1	-0.552733 -1.42673 98.3224	0 0 0
 80 1 1	-0.773427 -1.36643 99.9746	0 0 0
 81 1 1	-1.73544 -0.580509 101.059	0 0 0
 82 1 1	-1.8758 -0.281649 102.694	0 0 0
 83 1 1	-1.28228 0.926052 103.741	0 0 0
 84 1 1	-1.14081 1.06455 105.39	0 0 0
 85 1 1	0.0169991 1.17535 106.648	0 0 0
 86 1 1	0.12404 1.03063 108.317	0 0 0
 87 1 1	0.802612 0.00201053 109.396	0 0 0
 88 1 1	0.916223 -0.25158 111.039	0 0 0
 89 1 1	0.0769446 -1.16771 112.245	0 0 0
 90 1 1	-1.115 -0.979956 113.396	0 0 0
 91 1 1	-1.32775 -0.878 115.066	0 0 0
 92 1 1	-1.50457 0.392867 116.199	0 0 0
 93 1 1	-1.47729 0.716469 117.816	0 0 0
 94 1 1	-0.451042 1.33172 118.939	0 0 0
 95 1 1	0.819465 0.828837 119.844	0 0 0
 96 1 3	1.20464 0.888039 121.459	0 0 0
 97 1 3	2.15561 -0.120857 122.306	0 0 0
 98 1 3	2.45 -0.425 123.893	0 0 0
 99 1 2	2.68413 1.64602 -0.0817481	0 0 0
 100 1 2	3.2902 -0.140936 -0.102975	0 0 0
 101 1 2	1.79419 1.41145 1.76832	0 0 0
 102 1 2	3.17279 0.145218 1.82139	0 0 0
 103 1 2	0.262036 -0.89408 2.05557	0 0 0
 104 1 2	1.92556 -1.4006 2.51931	0 0 0
 105 1 2	1.30706 0.429146 4.53128	0 0 0
 106 1 2	2.0074 -1.20759 4.40881	0 0 0
 107 1 2	-0.0438688 -2.32439 4.93758	0 0 0
 108 1 2	-1.02919 -0.920196 4.79616	0 0 0
 109 1 2	0.78497 -0.660301 7.08579	0 0 0
 110 1 2	-0.0450319 -2.26436 6.9661	0 0 0
 111 1 2	-1.78362 0.214706 7.42955	0 0 0
 112 1 2	-2.10348 -1.45662 7.65447	0 0 0
 113 1 2	-2.18353 -1.16043 9.54384	0 0 0
 114 1 2	-0.567083 -1.19866 9.89044	0 0 0
 115 1 2	-2.44176 0.124472 11.2054	0 0 0
 116 1 2	-2.51646 1.09751 9.81654	0 0 0
 117 1 2	-1.89929 2.59244 11.2753	0 0 0
 118 1 2	-0.304799 2.41589 10.844	0 0 0
 119 1 2	-0.848734 3.15192 13.0137	0 0 0
 120 1 2	-1.62102 1.6966 13.5023	0 0 0
 121 1 2	1.12588 2.82987 13.7579	0 0 0
 122 1 2	1.34508 1.17901 13.784	0 0 0
 123 1 2	1.79165 2.44273 15.5636	0 0 0
 124 1 2	0.0745242 2.64837 15.9351	0 0 0
 125 1 2	2.03458 1.49361 17.3618	0 0 0
 126 1 2	2.04705 0.360763 16.0767	0 0 0
 127 1 2	0.206598 -1.04355 17.3684	0 0 0
 128 1 2	1.64419 -0.814192 17.852	0 0 0
 129 1 2	1.19186 0.550537 19.837	0 0 0
 130 1 2	1.3286 -1.17107 19.73	0 0 0
 131 1 2	-1.55738 -0.308809 19.8697	0 0 0
 132 1 2	-0.739212 -1.77718 20.2676	0 0 0
 133 1 2	-0.0455368 -0.942147 22.5523	0 0 0
 134 1 2	-1.78401 -1.25466 22.0401	0 0 0
 135 1 2	-2.55622 0.418763 22.7853	0 0 0
 136 1 2	-1.3795 1.66151 22.7334	0 0 0
 137 1 2	-2.73998 0.853576 24.6792	0 0 0
 138 1 2	-1.49782 -0.237469 25.1708	0 0 0
 139 1 2	-1.14283 2.85084 25.1189	0 0 0
 140 1 2	-2.17766 2.05182 26.1993	0 0 0
 141 1 2	-0.379498 3.32247 27.1582	0 0 0
 142 1 2	0.96689 2.3187 26.5049	0 0 0
 143 1 2	-0.785741 2.04316 28.8473	0 0 0
 144 1 2	0.800647 2.9437 28.8201	0 0 0
 145 1 2	2.2128 1.55695 29.4455	0 0 0
 146 1 2	1.41683 0.0525141 28.9956	0 0 0
 147 1 2	2.28421 0.395212 31.497	0 0 0
 148 1 2	1.1726 1.57951 31.6312	0 0 0
 149 1 2	0.989066 -1.55533 31.7252	0 0 0
 150 1 2	-0.599276 -0.828726 31.8319	0 0 0
 151 1 2	1.33016 -0.796212 34.1434	0 0 0
 152 1 2	0.572317 -2.18099 33.4488	0 0 0
 153 1 2	-1.58556 -1.55637 34.1356	0 0 0
 154 1 2	-0.454839 -2.0392 35.3989	0 0 0
 155 1 2	-1.93897 0.690159 35.3795	0 0 0
 156 1 2	-2.56686 -0.919314 35.8509	0 0 0
 157 1 2	-2.53825 -0.166758 37.7372	0 0 0
 158 1 2	-1.0503 -0.990051 37.6683	0 0 0
 159 1 2	-0.280415 1.84297 37.9254	0 0 0
 160 1 2	-2.06663 1.90522 38.1791	0 0 0
 161 1 2	-0.962745 2.66381 39.9395	0 0 0
 162 1 2	-1.89969 1.41621 40.4165	0 0 0
 163 1 2	1.02118 1.99949 40.2693	0 0 0
 164 1 2	0.0849164 2.45359 41.6922	0 0 0
 165 1 2	2.10802 0.373796 41.352	0 0 0
 166 1 2	1.67409 1.45716 42.5319	0 0 0
 167 1 2	1.27487 -1.44799 42.3864	0 0 0
 168 1 2	2.06798 -0.28025 43.5121	0 0 0
 169 1 2	0.0343453 -2.20526 44.0388	0 0 0
 170 1 2	1.35802 -1.50882 45.0256	0 0 0
 171 1 2	-1.6351 -1.24247 44.9649	0 0 0
 172 1 2	-0.652222 -1.9541 46.0649	0 0 0
 173 1 2	-2.2781 0.697823 46.1207	0 0 0
 174 1 2	-1.95854 -0.696482 47.3031	0 0 0
 175 1 2	-2.10559 1.11317 48.4083	0 0 0
 176 1 2	-1.16612 2.01575 47.2705	0 0 0
 177 1 2	-0.69822 2.32299 49.5119	0 0 0
 178 1 2	0.570619 2.21267 48.534	0 0 0
 179 1 2	1.84172 1.16652 49.887	0 0 0
 180 1 2	0.823513 1.90176 51.0211	0 0 0
 181 1 2	1.5667 -1.0124 50.8504	0 0 0
 182 1 2	2.07338 0.145749 51.976	0 0 0
 183 1 2	1.36773 -1.29089 53.3066	0 0 0
 184 1 2	0.179376 -2.0738 52.3198	0 0 0
 185 1 2	-1.60358 -1.36577 53.4642	0 0 0
 186 1 2	-0.69678 -2.02664 54.5772	0 0 0
 187 1 2	-2.27462 0.452999 54.9923	0 0 0
 188 1 2	-1.98473 -0.903197 55.8017	0 0 0
 189 1 2	-1.95906 0.803951 57.2545	0 0 0
 190 1 2	-1.03963 1.80487 56.1564	0 0 0
 191 1 2	0.806682 2.07888 57.3106	0 0 0
 192 1 2	-0.446159 2.04484 58.3287	0 0 0
 193 1 2	2.02492 0.497192 58.4352	0 0 0
 194 1 2	1.49295 1.68421 59.4628	0 0 0
 195 1 2	1.93811 -1.17678 59.7301	0 0 0
 196 1 2	2.20898 0.062398 60.8246	0 0 0
 197 1 2	0.198702 -2.24717 61.0207	0 0 0
 198 1 2	1.45662 -1.52056 61.9901	0 0 0
 199 1 2	-0.39538 -2.22913 63.1801	0 0 0
 200 1 2	-1.50094 -1.28655 62.2455	0 0 0
 201 1 2	-1.91596 0.552067 63.415	0 0 0
 202 1 2	-1.93263 -0.928801 64.3491	0 0 0
 203 1 2	-1.93144 0.864233 65.6996	0 0 0
 204 1 2	-0.975661 1.88315 64.6406	0 0 0
 205 1 2	-0.420671 2.06396 66.8389	0 0 0
 206 1 2	0.782418 2.02481 65.7347	0 0 0
 207 1 2	1.41921 1.7053 67.9688	0 0 0
 208 1 2	2.27787 0.647468 66.9753	0 0 0
 209 1 2	2.25208 0.234976 69.3239	0 0 0
 210 1 2	2.07422 -1.10368 68.4407	0 0 0
 211 1 2	0.528157 -2.13279 69.3565	0 0 0
 212 1 2	1.61071 -1.69418 70.583	0 0 0
 213 1 2	-1.45855 -1.22227 70.6925	0 0 0
 214 1 2	-0.453235 -2.53326 71.11	0 0 0
 215 1 2	-1.14347 -2.14838 72.9378	0 0 0
 216 1 2	0.440872 -1.55362 73.0379	0 0 0
 217 1 2	-2.39621 -0.253762 73.5971	0 0 0
 218 1 2	-1.22031 1.03484 73.3904	0 0 0
 219 1 2	-2.19728 0.821563 75.4563	0 0 0
 220 1 2	-1.54423 -0.806895 75.6901	0 0 0
 221 1 2	0.635767 1.2418 76.0323	0 0 0
 222 1 2	-0.923368 2.15107 76.0706	0 0 0
 223 1 2	-1.27035 0.961478 78.4322	0 0 0
 224 1 2	-0.342534 2.4441 77.8999	0 0 0
 225 1 2	1.65721 1.49612 78.3557	0 0 0
 226 1 2	0.701884 2.24005 79.6416	0 0 0
 227 1 2	1.53949 -0.72601 79.8522	0 0 0
 228 1 2	2.45815 0.751957 80.1931	0 0 0
 229 1 2	0.85897 1.11496 82.1212	0 0 0
 230 1 2	2.40246 0.403478 82.2489	0 0 0
 231 1 2	0.402483 -1.66259 82.3479	0 0 0
 232 1 2	2.0158 -1.4732 82.8522	0 0 0
 233 1 2	1.59028 -0.787508 85.0319	0 0 0
 234 1 2	0.868777 -2.36308 84.5305	0 0 0
 235 1 2	-0.99009 -2.09079 85.1445	0 0 0
 236 1 2	-1.33304 -0.405652 85.0773	0 0 0
 237 1 2	-1.93983 -1.59456 87.0729	0 0 0
 238 1 2	-0.236083 -1.72898 87.6695	0 0 0
 239 1 2	-2.44789 -0.606591 88.8665	0 0 0
 240 1 2	-2.52785 0.394 87.4311	0 0 0
 241 1 2	-0.874878 1.97997 88.7183	0 0 0
 242 1 2	-2.34587 1.73564 89.2342	0 0 0
 243 1 2	-1.8731 1.90895 91.1888	0 0 0
 244 1 2	-1.57954 0.226023 91.1665	0 0 0
 245 1 2	1.08125 1.42789 91.3902	0 0 0
 246 1 2	0.0591808 2.61445 92.0019	0 0 0
 247 1 2	1.20331 2.17544 93.7624	0 0 0
 248 1 2	-0.420446 1.81984 94.0205	0 0 0
 249 1 2	0.844165 -0.849527 94.2728	0 0 0
 250 1 2	2.16706 0.17254 94.3177	0 0 0
 251 1 2	2.24845 -0.162713 96.2892	0 0 0
 252 1 2	1.01693 1.02711 96.6689	0 0 0
 253 1 2	0.775404 -2.04143 96.6439	0 0 0
 254 1 2	1.60109 -1.21217 97.987	0 0 0
 255 1 2	-1.51948 -1.3429 97.7888	0 0 0
 256 1 2	-0.474935 -2.55833 98.3327	0 0 0
 257 1 2	-0.945872 -2.39013 100.121	0 0 0
 258 1 2	0.220491 -1.47389 100.394	0 0 0
 259 1 2	-2.1162 0.292108 100.572	0 0 0
 260 1 2	-2.54269 -1.29245 101.088	0 0 0
 261 1 2	-2.96684 0.00709102 102.77	0 0 0
 262 1 2	-1.77637 -1.27944 103.108	0 0 0
 263 1 2	-0.392807 1.37704 103.29	0 0 0
 264 1 2	-2.16068 1.58986 103.556	0 0 0
 265 1 2	-1.96829 0.433854 105.661	0 0 0
 266 1 2	-1.57709 2.06486 105.399	0 0 0
 267 1 2	0.990874 0.714001 106.438	0 0 0
 268 1 2	0.174526 2.22296 106.528	0 0 0
 269 1 2	-0.859916 1.36992 108.684	0 0 0
 270 1 2	0.770531 1.96608 108.382	0 0 0
 271 1 2	1.84429 0.187468 109.154	0 0 0
 272 1 2	0.756875 -1.09857 109.148	0 0 0
 273 1 2	1.76745 -1.02925 111.017	0 0 0
 274 1 2	1.3623 0.640738 111.53	0 0 0
 275 1 2	-0.245774 -2.07507 111.711	0 0 0
 276 1 2	0.855289 -1.68342 112.8	0 0 0
 277 1 2	-2.05353 -0.505239 112.98	0 0 0
 278 1 2	-1.25369 -2.02567 113.26	0 0 0
 279 1 2	-2.24311 -1.41777 115.159	0 0 0
 280 1 2	-0.618537 -1.60583 115.563	0 0 0
 281 1 2	-2.581 0.394129 116.079	0 0 0
 282 1 2	-1.11874 1.30654 115.706	0 0 0
 283 1 2	-2.10451 1.57034 117.833	0 0 0
 284 1 2	-2.14143 -0.0186249 118.313	0 0 0
 285 1 2	0.168465 2.1267 118.438	0 0 0
 286 1 2	-1.16902 1.68371 119.666	0 0 0
 287 1 2	1.55738 1.53411 119.468	0 0 0
 288 1 2	1.11504 -0.174258 119.539	0 0 0
 289 1 2	1.78439 1.87802 121.556	0 0 0
 290 1 2	0.343741 1.06805 122.055	0 0 0
 291 1 2	1.66101 -0.995212 122.046	0 0 0
 292 1 2	3.10545 -0.00714306 121.841	0 0 0
 293 1 2	2.93214 0.478506 124.331	0 0 0
 294 1 2	1.39883 -0.57853 124.29	0 0 0
 295 2 4	-2.44818 0.314408 -0.024811	0 0 0
 296 2 4	-1.79075 1.25148 1.13649	0 0 0
 297 2 4	-1.79657 0.997344 2.75315	0 0 0
 298 2 1	-0.954713 1.89746 3.86892	0 0 0
 299 2 1	-0.900834 1.70203 5.48843	0 0 0
 300 2 1	0.349996 1.716 6.61548	0 0 0
 301 2 1	0.350306 1.66515 8.2546	0 0 0
 302 2 1	1.1422 0.62534 9.34335	0 0 0
 303 2 1	1.22558 0.4729 11.0114	0 0 0
 304 2 1	0.709409 -0.605546 12.1677	0 0 0
 305 2 1	-0.55871 -0.70335 13.2042	0 0 0
 306 2 1	-0.676014 -0.42952 14.8408	0 0 0
 307 2 1	-1.58667 0.547272 15.8434	0 0 0
 308 2 1	-1.6643 0.853322 17.471	0 0 0
 309 2 1	-0.999881 1.9894 18.4738	0 0 0
 310 2 1	-0.822489 2.0888 20.1083	0 0 0
 311 2 1	0.435007 2.17203 21.1685	0 0 0
 312 2 1	1.23427 1.24428 22.2554	0 0 0
 313 2 1	1.10735 1.08335 23.9035	0 0 0
 314 2 1	0.990017 -0.32163 24.8571	0 0 0
 315 2 1	0.599078 -0.42115 26.5095	0 0 0
 316 2 1	-0.743416 -0.506694 27.4782	0 0 0
 317 2 1	-1.01277 -0.560906 29.1089	0 0 0
 318 2 1	-1.69776 0.381836 30.2959	0 0 0
 319 2 1	-1.26182 1.53441 31.4056	0 0 0
 320 2 1	-1.02453 1.48941 33.0484	0 0 0
 321 2 1	0.31522 1.71802 34.0012	0 0 0
 322 2 1	0.556457 1.51898 35.62	0 0 0
 323 2 1	1.12833 0.279688 36.5989	0 0 0
 324 2 1	1.25799 0.0941792 38.2399	0 0 0
 325 2 1	0.671906 -0.923966 39.3808	0 0 0
 326 2 1	-0.577864 -1.01509 40.5274	0 0 0
 327 2 1	-1.25025 -0.429686 41.9917	0 0 0
 328 2 1	-1.17343 0.724942 43.2643	0 0 0
 329 2 1	-0.213276 1.41265 44.4626	0 0 0
 330 2 1	0.756112 1.0555 45.8114	0 0 0
 331 2 1	1.04863 -0.0369083 47.0846	0 0 0
 332 2 1	0.367138 -0.912842 48.4173	0 0 0
 333 2 1	-0.781319 -0.936048 49.7137	0 0 0
 334 2 1	-1.43689 -0.00955248 50.9903	0 0 0
 335 2 1	-1.13921 1.0008 52.3039	0 0 0
 336 2 1	-0.00277011 1.39076 53.5339	0 0 0
 337 2 1	1.01452 0.759747 54.7509	0 0 0
 338 2 1	1.18199 -0.390372 55.9191	0 0 0
 339 2 1	0.470412 -1.26384 57.2278	0 0 0
 340 2 1	-0.673449 -1.24315 58.4723	0 0 0
 341 2 1	-1.30777 -0.195535 59.6536	0 0 0
 342 2 1	-0.88962 0.93585 60.8763	0 0 0
 343 2 1	0.247959 1.30558 62.0739	0 0 0
 344 2 1	1.21189 0.765608 63.3344	0 0 0
 345 2 1	1.37119 -0.425231 64.5142	0 0 0
 346 2 1	0.586598 -1.27523 65.6893	0 0 0
 347 2 1	-0.521796 -1.21089 66.9758	0 0 0
 348 2 1	-1.12565 -0.167839 68.1924	0 0 0
 349 2 1	-0.705589 1.00915 69.3753	0 0 0
 350 2 1	-0.224252 1.24911 70.9136	0 0 0
 351 2 1	1.08676 0.900222 71.8848	0 0 0
 352 2 1	1.28215 0.760443 73.528	0 0 0
 353 2 1	1.6291 -0.37831 74.6805	0 0 0
 354 2 1	0.88796 -1.41868 75.7897	0 0 0
 355 2 1	0.728126 -1.34258 77.4314	0 0 0
 356 2 1	-0.631865 -1.46637 78.3283	0 0 0
 357 2 1	-0.854228 -1.18623 79.9347	0 0 0
 358 2 1	-1.31868 0.0416661 80.9581	0 0 0
 359 2 1	-1.43284 0.156025 82.5815	0 0 0
 360 2 1	-0.955769 1.35099 83.6519	0 0 0
 361 2 1	0.270611 1.53055 84.8138	0 0 0
 362 2 1	0.332069 1.39433 86.4166	0 0 0
 363 2 1	1.25749 0.477117 87.4411	0 0 0
 364 2 1	1.22791 0.186395 89.0343	0 0 0
 365 2 1	0.539866 -0.947801 90.0034	0 0 0
 366 2 1	0.432494 -1.18885 91.6395	0 0 0
 367 2 1	-0.780716 -1.40298 92.7423	0 0 0
 368 2 1	-1.66374 -0.438781 93.7883	0 0 0
 369 2 1	-1.55753 -0.276374 95.4239	0 0 0
 370 2 1	-1.3884 1.04241 96.4942	0 0 0
 371 2 1	-1.21802 1.19346 98.102	0 0 0
 372 2 1	0.0931097 1.29888 99.1452	0 0 0
 373 2 1	0.304627 1.1942 100.766	0 0 0
 374 2 1	1.15816 0.196971 101.728	0 0 0
 375 2 1	0.832512 -1.0421 102.829	0 0 0
 376 2 1	0.689446 -1.07708 104.468	0 0 0
 377 2 1	-0.459703 -1.78343 105.326	0 0 0
 378 2 1	-0.654183 -1.77856 106.964	0 0 0
 379 2 1	-1.75293 -0.970419 107.899	0 0 0
 380 2 1	-1.76533 -0.88443 109.53	0 0 0
 381 2 1	-2.05085 0.393876 110.543	0 0 0
 382 2 1	-1.20256 1.49328 111.343	0 0 0
 383 2 1	-0.693893 1.68764 112.962	0 0 0
 384 2 1	0.622712 1.51741 113.954	0 0 0
 385 2 1	1.24871 0.319193 114.917	0 0 0
 386 2 1	1.23423 -0.0166596 116.529	0 0 0
 387 2 1	0.915174 -1.27733 117.494	0 0 0
 388 2 1	-0.302068 -1.82704 118.43	0 0 0
 389 2 1	-0.608914 -1.92125 120.053	0 0 0
 390 2 3	-1.6023 -1.14413 121.103	0 0 0
 391 2 3	-1.63476 -1.21189 122.767	0 0 0
 392 2 3	-2.45 -0.425 123.893	0 0 0
 393 2 2	-1.96999 -0.61738 0.0544881	0 0 0
 394 2 2	-2.36321 0.776362 -1.08218	0 0 0
 395 2 2	-0.728925 1.35866 0.880907	0 0 0
 396 2 2	-2.33991 2.1532 1.01175	0 0 0
 397 2 2	-2.78768 1.07417 3.11281	0 0 0
 398 2 2	-1.7114 -0.109954 2.95504	0 0 0
 399 2 2	-1.38278 2.85371 3.88537	0 0 0
 400 2 2	0.0853695 2.02697 3.54075	0 0 0
 401 2 2	-1.57513 0.81952 5.57622	0 0 0
 402 2 2	-1.45471 2.59749 5.8544	0 0 0
 403 2 2	1.24738 1.23018 6.29762	0 0 0
 404 2 2	0.331639 2.76618 6.53772	0 0 0
 405 2 2	0.958868 2.55903 8.53449	0 0 0
 406 2 2	-0.561609 2.08907 8.60494	0 0 0
 407 2 2	2.19803 0.987433 9.19619	0 0 0
 408 2 2	1.15558 -0.370935 9.00498	0 0 0
 409 2 2	1.45977 1.42842 11.5774	0 0 0
 410 2 2	2.23195 0.00913366 10.973	0 0 0
 411 2 2	1.44843 -0.889039 12.9252	0 0 0
 412 2 2	0.624011 -1.53778 11.4921	0 0 0
 413 2 2	-0.538751 -1.83035 13.2029	0 0 0
 414 2 2	-1.45825 -0.336292 12.7911	0 0 0
 415 2 2	0.330383 -0.478215 15.1973	0 0 0
 416 2 2	-1.14091 -1.34884 15.1285	0 0 0
 417 2 2	-2.65632 0.260025 15.571	0 0 0
 418 2 2	-1.63714 1.61706 15.4947	0 0 0
 419 2 2	-2.66022 1.37098 17.4808	0 0 0
 420 2 2	-1.73391 -0.132008 17.9414	0 0 0
 421 2 2	-0.0175106 2.27894 18.1005	0 0 0
 422 2 2	-1.5768 2.96497 18.354	0 0 0
 423 2 2	-1.0728 3.19812 20.0778	0 0 0
 424 2 2	-1.74113 1.67713 20.5332	0 0 0
 425 2 2	0.156947 2.99641 21.8044	0 0 0
 426 2 2	1.27029 2.57016 20.5407	0 0 0
 427 2 2	1.57649 0.256203 21.8646	0 0 0
 428 2 2	2.19427 1.84334 22.2217	0 0 0
 429 2 2	0.650906 1.99045 24.4149	0 0 0
 430 2 2	2.18235 1.27697 24.1907	0 0 0
 431 2 2	2.06436 -0.766227 24.8503	0 0 0
 432 2 2	0.283378 -1.06318 24.4163	0 0 0
 433 2 2	1.36276 0.272215 26.9304	0 0 0
 434 2 2	1.03435 -1.42506 26.7171	0 0 0
 435 2 2	-1.10118 -1.44723 27.1366	0 0 0
 436 2 2	-1.54882 0.168824 27.1769	0 0 0
 437 2 2	-0.168177 -1.11613 29.4492	0 0 0
 438 2 2	-1.77368 -1.35433 29.0294	0 0 0
 439 2 2	-2.37747 0.991659 29.7178	0 0 0
 440 2 2	-2.34088 -0.392214 30.889	0 0 0
 441 2 2	-0.778253 2.41939 31.0076	0 0 0
 442 2 2	-2.32434 1.8465 31.4163	0 0 0
 443 2 2	-1.68487 2.26852 33.3153	0 0 0
 444 2 2	-1.44808 0.543151 33.299	0 0 0
 445 2 2	1.26991 1.25769 33.7471	0 0 0
 446 2 2	0.361966 2.75012 33.8428	0 0 0
 447 2 2	-0.297828 2.03247 35.9612	0 0 0
 448 2 2	1.34439 2.27338 35.8732	0 0 0
 449 2 2	2.21287 0.437586 36.366	0 0 0
 450 2 2	0.982093 -0.72776 36.2073	0 0 0
 451 2 2	2.18307 -0.493915 38.0864	0 0 0
 452 2 2	1.68728 1.012 38.6565	0 0 0
 453 2 2	0.447372 -1.88155 38.8044	0 0 0
 454 2 2	1.6497 -1.07435 39.8939	0 0 0
 455 2 2	-1.42593 -1.09208 39.9451	0 0 0
 456 2 2	-0.243629 -2.02071 40.8261	0 0 0
 457 2 2	-2.24925 -0.290875 41.5784	0 0 0
 458 2 2	-1.41696 -1.27553 42.7052	0 0 0
 459 2 2	-2.06584 0.477039 43.7638	0 0 0
 460 2 2	-1.4716 1.64259 42.7647	0 0 0
 461 2 2	-0.955071 1.97617 44.9225	0 0 0
 462 2 2	0.329194 2.16156 43.9043	0 0 0
 463 2 2	1.77323 1.06501 45.3717	0 0 0
 464 2 2	0.644119 2.06659 46.2791	0 0 0
 465 2 2	1.79742 -0.762792 46.8055	0 0 0
 466 2 2	1.69355 0.659355 47.6138	0 0 0
 467 2 2	1.29784 -1.03185 48.9655	0 0 0
 468 2 2	0.152288 -1.94103 48.0333	0 0 0
 469 2 2	-1.77443 -0.990819 49.2044	0 0 0
 470 2 2	-0.59501 -1.94141 50.1565	0 0 0
 471 2 2	-2.13175 -0.716494 51.428	0 0 0
 472 2 2	-2.21448 0.595982 50.4699	0 0 0
 473 2 2	-2.08715 0.766594 52.6849	0 0 0
 474 2 2	-1.28574 2.02538 51.8541	0 0 0
 475 2 2	-0.567316 2.2137 53.9826	0 0 0
 476 2 2	0.839231 2.00231 53.042	0 0 0
 477 2 2	1.21785 1.67077 55.1842	0 0 0
 478 2 2	1.95915 0.634355 54.2733	0 0 0
 479 2 2	2.09953 -0.13144 56.4224	0 0 0
 480 2 2	1.72157 -1.1942 55.4042	0 0 0
 481 2 2	1.28201 -1.85043 57.6616	0 0 0
 482 2 2	0.061424 -2.06033 56.6946	0 0 0
 483 2 2	-1.605 -1.54369 58.0147	0 0 0
 484 2 2	-0.490287 -2.19085 59.0112	0 0 0
 485 2 2	-2.24472 0.218351 59.3173	0 0 0
 486 2 2	-1.67485 -1.05374 60.1742	0 0 0
 487 2 2	-0.934939 1.96126 60.435	0 0 0
 488 2 2	-1.80762 0.910168 61.4627	0 0 0
 489 2 2	-0.364141 2.06757 62.6255	0 0 0
 490 2 2	0.984635 1.85704 61.502	0 0 0
 491 2 2	1.42858 1.65871 63.9778	0 0 0
 492 2 2	2.21684 0.484606 62.9254	0 0 0
 493 2 2	2.20473 0.00294433 65.1092	0 0 0
 494 2 2	1.83129 -1.23713 64.0168	0 0 0
 495 2 2	1.58554 -1.50022 66.1186	0 0 0
 496 2 2	0.233461 -2.13841 65.1279	0 0 0
 497 2 2	-1.46618 -1.45744 66.5208	0 0 0
 498 2 2	-0.244315 -2.05112 67.6085	0 0 0
 499 2 2	-1.67953 -0.965847 68.7197	0 0 0
 500 2 2	-1.98983 0.348036 67.6631	0 0 0
 501 2 2	-1.73237 1.3806 69.536	0 0 0
 502 2 2	-0.277286 1.87555 68.8692	0 0 0
 503 2 2	-0.229285 2.33568 71.106	0 0 0
 504 2 2	-1.07168 0.892444 71.453	0 0 0
 505 2 2	1.56944 1.89016 71.7753	0 0 0
 506 2 2	1.86136 0.260942 71.4757	0 0 0
 507 2 2	2.21815 1.27447 73.4393	0 0 0
 508 2 2	0.632595 1.53218 73.9887	0 0 0
 509 2 2	2.30223 0.229388 75.2777	0 0 0
 510 2 2	2.32713 -0.982236 74.058	0 0 0
 511 2 2	1.84414 -2.01742 75.79	0 0 0
 512 2 2	0.11617 -2.05708 75.2997	0 0 0
 513 2 2	1.22898 -2.28806 77.7286	0 0 0
 514 2 2	1.42734 -0.562753 77.5563	0 0 0
 515 2 2	-1.47572 -0.926551 77.8082	0 0 0
 516 2 2	-0.988198 -2.51961 78.2257	0 0 0
 517 2 2	-1.86824 -1.62797 79.9257	0 0 0
 518 2 2	-0.177851 -1.84365 80.4934	0 0 0
 519 2 2	-0.946146 1.03971 80.6014	0 0 0
 520 2 2	-2.36138 0.225804 80.7523	0 0 0
 521 2 2	-1.58285 -0.873586 82.9746	0 0 0
 522 2 2	-2.45691 0.478073 82.6238	0 0 0
 523 2 2	-0.679618 2.22429 83.0108	0 0 0
 524 2 2	-1.75467 1.51703 84.372	0 0 0
 525 2 2	1.16797 1.19444 84.3217	0 0 0
 526 2 2	0.36805 2.59965 84.8005	0 0 0
 527 2 2	0.498756 2.48437 86.7168	0 0 0
 528 2 2	-0.690023 1.17 86.6553	0 0 0
 529 2 2	1.421 -0.460011 86.9675	0 0 0
 530 2 2	2.19434 1.09934 87.2547	0 0 0
 531 2 2	2.30184 -0.0612042 89.1631	0 0 0
 532 2 2	1.02518 1.26772 89.4064	0 0 0
 533 2 2	-0.511423 -1.13925 89.7905	0 0 0
 534 2 2	1.0926 -1.82358 89.6627	0 0 0
 535 2 2	1.32157 -0.588904 92.0451	0 0 0
 536 2 2	0.796779 -2.24434 91.7337	0 0 0
 537 2 2	-0.425741 -2.12443 93.4929	0 0 0
 538 2 2	-1.6007 -1.94833 92.1921	0 0 0
 539 2 2	-1.93916 0.484103 93.3391	0 0 0
 540 2 2	-2.62387 -1.03151 93.79	0 0 0
 541 2 2	-1.1469 -1.23129 95.7741	0 0 0
 542 2 2	-2.58075 -0.416014 95.5929	0 0 0
 543 2 2	-2.37826 1.33269 96.3812	0 0 0
 544 2 2	-0.803877 1.8186 95.9993	0 0 0
 545 2 2	-2.02351 0.598728 98.5692	0 0 0
 546 2 2	-1.49243 2.28401 98.0768	0 0 0
 547 2 2	0.412424 2.32032 98.8853	0 0 0
 548 2 2	0.982654 0.735101 98.7407	0 0 0
 549 2 2	-0.528221 1.72201 101.277	0 0 0
 550 2 2	1.0936 1.93555 100.884	0 0 0
 551 2 2	1.80199 -0.294429 100.988	0 0 0
 552 2 2	1.7729 0.895038 102.294	0 0 0
 553 2 2	1.79344 -1.58204 102.844	0 0 0
 554 2 2	0.132867 -1.72927 102.472	0 0 0
 555 2 2	1.57342 -1.60895 104.816	0 0 0
 556 2 2	0.878483 -0.00387134 104.631	0 0 0
 557 2 2	-1.44219 -1.54291 104.954	0 0 0
 558 2 2	-0.351487 -2.83628 104.992	0 0 0
 559 2 2	0.340098 -1.4666 107.253	0 0 0
 560 2 2	-0.802255 -2.87682 107.185	0 0 0
 561 2 2	-2.174 0.0119636 107.574	0 0 0
 562 2 2	-2.60765 -1.76022 107.818	0 0 0
 563 2 2	-2.75682 -1.37986 109.6	0 0 0
 564 2 2	-0.979052 -1.56994 109.952	0 0 0
 565 2 2	-2.77397 -0.0601312 111.246	0 0 0
 566 2 2	-2.69846 0.974266 109.898	0 0 0
 567 2 2	-0.528112 2.00799 110.664	0 0 0
 568 2 2	-2.08159 2.13553 111.343	0 0 0
 569 2 2	-0.614251 2.78994 112.938	0 0 0
 570 2 2	-1.62288 1.55984 113.606	0 0 0
 571 2 2	1.48559 1.84648 113.404	0 0 0
 572 2 2	0.388142 2.2717 114.664	0 0 0
 573 2 2	1.35267 -0.568231 114.406	0 0 0
 574 2 2	2.28742 0.703245 115.059	0 0 0
 575 2 2	1.07633 0.933916 116.976	0 0 0
 576 2 2	2.32522 -0.065173 116.675	0 0 0
 577 2 2	0.958294 -2.05128 116.693	0 0 0
 578 2 2	1.84993 -1.44905 118.033	0 0 0
 579 2 2	0.0927041 -2.86022 118.306	0 0 0
 580 2 2	-1.25164 -1.77425 117.895	0 0 0
 581 2 2	0.389181 -1.9635 120.559	0 0 0
 582 2 2	-1.03594 -2.92216 120.176	0 0 0
 583 2 2	-2.62204 -1.39701 120.683	0 0 0
 584 2 2	-1.54478 -0.123452 120.767	0 0 0
 585 2 2	-1.78505 -2.20632 122.854	0 0 0
 586 2 2	-0.548035 -1.05147 123.072	0 0 0
 587 2 2	-1.68688 0.220653 124.343	0 0 0
 588 2 2	-2.60858 -1.19649 124.664	0 0 0
Bonds
 
  1 1 1 2
  2 1 2 3
  3 1 3 4
  4 1 4 5
  5 1 5 6
  6 1 6 7
  7 1 7 8
  8 1 8 9
  9 1 9 10
  10 1 10 11
  11 1 11 12
  12 1 12 13
  13 1 13 14
  14 1 14 15
  15 1 15 16
  16 1 16 17
  17 1 17 18
  18 1 18 19
  19 1 19 20
  20 1 20 21
  21 1 21 22
  22 1 22 23
  23 1 23 24
  24 1 24 25
  25 1 25 26
  26 1 26 27
  27 1 27 28
  28 1 28 29
  29 1 29 30
  30 1 30 31
  31 1 31 32
  32 1 32 33
  33 1 33 34
  34 1 34 35
  35 1 35 36
  36 1 36 37
  37 1 37 38
  38 1 38 39
  39 1 39 40
  40 1 40 41
  41 1 41 42
  42 1 42 43
  43 1 43 44
  44 1 44 45
  45 1 45 46
  46 1 46 47
  47 1 47 48
  48 1 48 49
  49 1 49 50
  50 1 50 51
  51 1 51 52
  52 1 52 53
  53 1 53 54
  54 1 54 55
  55 1 55 56
  56 1 56 57
  57 1 57 58
  58 1 58 59
  59 1 59 60
  60 1 60 61
  61 1 61 62
  62 1 62 63
  63 1 63 64
  64 1 64 65
  65 1 65 66
  66 1 66 67
  67 1 67 68
  68 1 68 69
  69 1 69 70
  70 1 70 71
  71 1 71 72
  72 1 72 73
  73 1 73 74
  74 1 74 75
  75 1 75 76
  76 1 76 77
  77 1 77 78
  78 1 78 79
  79 1 79 80
  80 1 80 81
  81 1 81 82
  82 1 82 83
  83 1 83 84
  84 1 84 85
  85 1 85 86
  86 1 86 87
  87 1 87 88
  88 1 88 89
  89 1 89 90
  90 1 90 91
  91 1 91 92
  92 1 92 93
  93 1 93 94
  94 1 94 95
  95 1 95 96
  96 1 96 97
  97 1 97 98
  98 1 295 296
  99 1 296 297
  100 1 297 298
  101 1 298 299
  102 1 299 300
  103 1 300 301
  104 1 301 302
  105 1 302 303
  106 1 303 304
  107 1 304 305
  108 1 305 306
  109 1 306 307
  110 1 307 308
  111 1 308 309
  112 1 309 310
  113 1 310 311
  114 1 311 312
  115 1 312 313
  116 1 313 314
  117 1 314 315
  118 1 315 316
  119 1 316 317
  120 1 317 318
  121 1 318 319
  122 1 319 320
  123 1 320 321
  124 1 321 322
  125 1 322 323
  126 1 323 324
  127 1 324 325
  128 1 325 326
  129 1 326 327
  130 1 327 328
  131 1 328 329
  132 1 329 330
  133 1 330 331
  134 1 331 332
  135 1 332 333
  136 1 333 334
  137 1 334 335
  138 1 335 336
  139 1 336 337
  140 1 337 338
  141 1 338 339
  142 1 339 340
  143 1 340 341
  144 1 341 342
  145 1 342 343
  146 1 343 344
  147 1 344 345
  148 1 345 346
  149 1 346 347
  150 1 347 348
  151 1 348 349
  152 1 349 350
  153 1 350 351
  154 1 351 352
  155 1 352 353
  156 1 353 354
  157 1 354 355
  158 1 355 356
  159 1 356 357
  160 1 357 358
  161 1 358 359
  162 1 359 360
  163 1 360 361
  164 1 361 362
  165 1 362 363
  166 1 363 364
  167 1 364 365
  168 1 365 366
  169 1 366 367
  170 1 367 368
  171 1 368 369
  172 1 369 370
  173 1 370 371
  174 1 371 372
  175 1 372 373
  176 1 373 374
  177 1 374 375
  178 1 375 376
  179 1 376 377
  180 1 377 378
  181 1 378 379
  182 1 379 380
  183 1 380 381
  184 1 381 382
  185 1 382 383
  186 1 383 384
  187 1 384 385
  188 1 385 386
  189 1 386 387
  190 1 387 388
  191 1 388 389
  192 1 389 390
  193 1 390 391
  194 1 391 392
  195 2 1 99
  196 2 2 101
  197 2 3 103
  198 2 4 105
  199 2 5 107
  200 2 6 109
  201 2 7 111
  202 2 8 113
  203 2 9 115
  204 2 10 117
  205 2 11 119
  206 2 12 121
  207 2 13 123
  208 2 14 125
  209 2 15 127
  210 2 16 129
  211 2 17 131
  212 2 18 133
  213 2 19 135
  214 2 20 137
  215 2 21 139
  216 2 22 141
  217 2 23 143
  218 2 24 145
  219 2 25 147
  220 2 26 149
  221 2 27 151
  222 2 28 153
  223 2 29 155
  224 2 30 157
  225 2 31 159
  226 2 32 161
  227 2 33 163
  228 2 34 165
  229 2 35 167
  230 2 36 169
  231 2 37 171
  232 2 38 173
  233 2 39 175
  234 2 40 177
  235 2 41 179
  236 2 42 181
  237 2 43 183
  238 2 44 185
  239 2 45 187
  240 2 46 189
  241 2 47 191
  242 2 48 193
  243 2 49 195
  244 2 50 197
  245 2 51 199
  246 2 52 201
  247 2 53 203
  248 2 54 205
  249 2 55 207
  250 2 56 209
  251 2 57 211
  252 2 58 213
  253 2 59 215
  254 2 60 217
  255 2 61 219
  256 2 62 221
  257 2 63 223
  258 2 64 225
  259 2 65 227
  260 2 66 229
  261 2 67 231
  262 2 68 233
  263 2 69 235
  264 2 70 237
  265 2 71 239
  266 2 72 241
  267 2 73 243
  268 2 74 245
  269 2 75 247
  270 2 76 249
  271 2 77 251
  272 2 78 253
  273 2 79 255
  274 2 80 257
  275 2 81 259
  276 2 82 261
  277 2 83 263
  278 2 84 265
  279 2 85 267
  280 2 86 269
  281 2 87 271
  282 2 88 273
  283 2 89 275
  284 2 90 277
  285 2 91 279
  286 2 92 281
  287 2 93 283
  288 2 94 285
  289 2 95 287
  290 2 96 289
  291 2 97 291
  292 2 98 293
  293 2 1 100
  294 2 2 102
  295 2 3 104
  296 2 4 106
  297 2 5 108
  298 2 6 110
  299 2 7 112
  300 2 8 114
  301 2 9 116
  302 2 10 118
  303 2 11 120
  304 2 12 122
  305 2 13 124
  306 2 14 126
  307 2 15 128
  308 2 16 130
  309 2 17 132
  310 2 18 134
  311 2 19 136
  312 2 20 138
  313 2 21 140
  314 2 22 142
  315 2 23 144
  316 2 24 146
  317 2 25 148
  318 2 26 150
  319 2 27 152
  320 2 28 154
  321 2 29 156
  322 2 30 158
  323 2 31 160
  324 2 32 162
  325 2 33 164
  326 2 34 166
  327 2 35 168
  328 2 36 170
  329 2 37 172
  330 2 38 174
  331 2 39 176
  332 2 40 178
  333 2 41 180
  334 2 42 182
  335 2 43 184
  336 2 44 186
  337 2 45 188
  338 2 46 190
  339 2 47 192
  340 2 48 194
  341 2 49 196
  342 2 50 198
  343 2 51 200
  344 2 52 202
  345 2 53 204
  346 2 54 206
  347 2 55 208
  348 2 56 210
  349 2 57 212
  350 2 58 214
  351 2 59 216
  352 2 60 218
  353 2 61 220
  354 2 62 222
  355 2 63 224
  356 2 64 226
  357 2 65 228
  358 2 66 230
  359 2 67 232
  360 2 68 234
  361 2 69 236
  362 2 70 238
  363 2 71 240
  364 2 72 242
  365 2 73 244
  366 2 74 246
  367 2 75 248
  368 2 76 250
  369 2 77 252
  370 2 78 254
  371 2 79 256
  372 2 80 258
  373 2 81 260
  374 2 82 262
  375 2 83 264
  376 2 84 266
  377 2 85 268
  378 2 86 270
  379 2 87 272
  380 2 88 274
  381 2 89 276
  382 2 90 278
  383 2 91 280
  384 2 92 282
  385 2 93 284
  386 2 94 286
  387 2 95 288
  388 2 96 290
  389 2 97 292
  390 2 98 294
  391 2 295 393
  392 2 296 395
  393 2 297 397
  394 2 298 399
  395 2 299 401
  396 2 300 403