LAMMPS UA chain data file
 
         588  atoms
         586  bonds
         1164  angles
         1734  dihedrals
           0  impropers
 
           4  atom types
           2  bond types
           3  angle types
           3  dihedral types
           0  improper types
 
    -400.000000     400.000000 xlo xhi
    -400.000000     400.000000 ylo yhi
    -1.3000      125.300000 zlo zhi
 
Masses
 
  1   12.00
  2   1.00
  3   12.00
  4   12.00
 
Atoms

 1 1 4 2.45 0.42524 -0.0123869 0 0 0
 2 1 4 1.93933 0.99107 1.32804 0 0 0
 3 1 4 2.25651 0.252341 2.55 0 0 0
 4 1 1 1.78202 0.993777 3.80844 0 0 0
 5 1 1 1.76195 0.206394 5.13041 0 0 0
 6 1 1 1.35333 1.11329 6.31974 0 0 0
 7 1 1 1.37186 0.286981 7.59182 0 0 0
 8 1 1 1.1721 1.11722 8.87449 0 0 0
 9 1 1 1.48548 0.424042 10.2334 0 0 0
 10 1 1 0.984599 1.1385 11.4897 0 0 0
 11 1 1 1.13258 0.348678 12.7975 0 0 0
 12 1 1 0.910643 1.1918 14.0788 0 0 0
 13 1 1 0.93602 0.324195 15.3535 0 0 0
 14 1 1 0.937128 1.01219 16.7018 0 0 0
 15 1 1 1.14661 0.0943989 17.9921 0 0 0
 16 1 1 1.00291 0.93717 19.3003 0 0 0
 17 1 1 1.27507 0.128108 20.5635 0 0 0
 18 1 1 1.30467 0.927297 21.8731 0 0 0
 19 1 1 1.27013 0.0797662 23.1328 0 0 0
 20 1 1 1.39206 0.883086 24.4578 0 0 0
 21 1 1 1.14001 -0.0261973 25.6744 0 0 0
 22 1 1 1.35749 0.641233 27.0804 0 0 0
 23 1 1 0.955322 -0.27613 28.3273 0 0 0
 24 1 1 1.16618 0.550803 29.5853 0 0 0
 25 1 1 1.1207 -0.335482 30.8932 0 0 0
 26 1 1 0.865747 0.468247 32.1481 0 0 0
 27 1 1 0.641894 -0.402532 33.3939 0 0 0
 28 1 1 0.485166 0.365603 34.7431 0 0 0
 29 1 1 0.740125 -0.399999 36.0431 0 0 0
 30 1 1 0.549662 0.471058 37.2584 0 0 0
 31 1 1 0.916031 -0.342629 38.4983 0 0 0
 32 1 1 0.327377 0.40452 39.7419 0 0 0
 33 1 1 0.593649 -0.306213 41.109 0 0 0
 34 1 1 -0.0533479 0.338114 42.3024 0 0 0
 35 1 1 0.113288 -0.34645 43.6072 0 0 0
 36 1 1 -0.139771 0.433315 44.8893 0 0 0
 37 1 1 0.658755 -0.187023 46.005 0 0 0
 38 1 1 0.0583884 0.0693416 47.3807 0 0 0
 39 1 1 0.817141 -0.679162 48.5141 0 0 0
 40 1 1 0.265389 -0.386234 49.9119 0 0 0
 41 1 1 1.09827 -1.12752 50.9483 0 0 0
 42 1 1 0.63289 -0.812457 52.3973 0 0 0
 43 1 1 1.25343 -1.67908 53.5105 0 0 0
 44 1 1 0.962166 -1.26862 54.9825 0 0 0
 45 1 1 2.03338 -1.6532 56.0333 0 0 0
 46 1 1 1.55355 -1.3165 57.4985 0 0 0
 47 1 1 2.33511 -2.03011 58.6283 0 0 0
 48 1 1 1.72223 -1.53345 59.9663 0 0 0
 49 1 1 2.39004 -1.92458 61.3143 0 0 0
 50 1 1 1.59733 -1.56721 62.6532 0 0 0
 51 1 1 2.57425 -1.72302 63.8482 0 0 0
 52 1 1 1.87414 -1.4428 65.1882 0 0 0
 53 1 1 2.78119 -1.58379 66.4849 0 0 0
 54 1 1 2.10609 -1.62554 67.8514 0 0 0
 55 1 1 2.93227 -2.01759 69.0939 0 0 0
 56 1 1 2.04411 -2.27056 70.2891 0 0 0
 57 1 1 2.73375 -2.36192 71.6866 0 0 0
 58 1 1 1.74219 -2.56562 72.8755 0 0 0
 59 1 1 2.50949 -2.64962 74.2099 0 0 0
 60 1 1 1.62223 -2.41767 75.439 0 0 0
 61 1 1 2.38343 -2.48693 76.785 0 0 0
 62 1 1 1.40391 -2.6047 77.9644 0 0 0
 63 1 1 2.10365 -2.38848 79.3024 0 0 0
 64 1 1 1.17584 -2.71341 80.4913 0 0 0
 65 1 1 1.79144 -2.67309 81.9254 0 0 0
 66 1 1 0.858274 -3.15874 83.1081 0 0 0
 67 1 1 1.54017 -2.96276 84.4491 0 0 0
 68 1 1 0.788489 -3.44729 85.6994 0 0 0
 69 1 1 1.48224 -2.83718 86.8928 0 0 0
 70 1 1 0.540715 -2.8818 88.1246 0 0 0
 71 1 1 1.3085 -2.56771 89.4434 0 0 0
 72 1 1 0.468622 -2.3697 90.6968 0 0 0
 73 1 1 1.28099 -1.73146 91.8217 0 0 0
 74 1 1 0.529018 -1.60749 93.196 0 0 0
 75 1 1 1.28579 -1.05924 94.4299 0 0 0
 76 1 1 0.473349 -0.966363 95.7249 0 0 0
 77 1 1 1.26555 -0.759815 97.0666 0 0 0
 78 1 1 0.433543 -0.839028 98.3583 0 0 0
 79 1 1 1.16657 -0.616142 99.6907 0 0 0
 80 1 1 0.404419 -1.02874 100.948 0 0 0
 81 1 1 1.22418 -0.69816 102.221 0 0 0
 82 1 1 0.562308 -1.05052 103.562 0 0 0
 83 1 1 1.51294 -1.08098 104.741 0 0 0
 84 1 1 0.859766 -1.07463 106.085 0 0 0
 85 1 1 1.88727 -0.775911 107.181 0 0 0
 86 1 1 1.33843 -0.922782 108.623 0 0 0
 87 1 1 2.25601 -0.333901 109.664 0 0 0
 88 1 1 1.69004 -0.344382 111.119 0 0 0
 89 1 1 2.61343 0.221191 112.263 0 0 0
 90 1 1 1.89698 -0.0582411 113.585 0 0 0
 91 1 1 2.72682 0.377443 114.808 0 0 0
 92 1 1 2.07762 -0.197608 116.141 0 0 0
 93 1 1 2.92126 -0.0442415 117.431 0 0 0
 94 1 1 2.27463 -0.712194 118.646 0 0 0
 95 1 1 3.16385 -0.554542 119.906 0 0 0
 96 1 3 2.42902 -0.814862 121.199 0 0 0
 97 1 3 3.17695 -0.346161 122.5 0 0 0
 98 1 3 2.45 -0.425 123.881 0 0 0
 99 1 2 1.81445 -0.399254 -0.244349 0 0 0
 100 1 2 2.29426 1.08995 -0.857192 0 0 0
 101 1 2 0.791251 1.1758 1.25645 0 0 0
 102 1 2 2.3745 2.02338 1.42504 0 0 0
 103 1 2 1.66038 -0.60735 2.50862 0 0 0
 104 1 2 3.36007 0.0455378 2.51728 0 0 0
 105 1 2 0.75115 1.33865 3.53503 0 0 0
 106 1 2 2.48686 1.89124 3.83908 0 0 0
 107 1 2 1.05309 -0.647412 5.00748 0 0 0
 108 1 2 2.73232 -0.0929092 5.37605 0 0 0
 109 1 2 0.291179 1.48666 6.23078 0 0 0
 110 1 2 2.1525 1.93716 6.38325 0 0 0
 111 1 2 0.655613 -0.575967 7.53423 0 0 0
 112 1 2 2.35017 -0.059055 7.79458 0 0 0
 113 1 2 0.138546 1.40788 8.93293 0 0 0
 114 1 2 1.76814 2.01255 8.85068 0 0 0
 115 1 2 1.10583 -0.549159 10.2847 0 0 0
 116 1 2 2.53993 0.179998 10.3691 0 0 0
 117 1 2 -0.0389454 1.34995 11.345 0 0 0
 118 1 2 1.66948 2.07477 11.5739 0 0 0
 119 1 2 0.463904 -0.525781 12.8055 0 0 0
 120 1 2 2.1874 0.144573 12.8747 0 0 0
 121 1 2 0.0324051 1.7847 14.1251 0 0 0
 122 1 2 1.80217 1.78565 14.1988 0 0 0
 123 1 2 -0.000587078 -0.221707 15.462 0 0 0
 124 1 2 1.78862 -0.301982 15.2769 0 0 0
 125 1 2 0.0379765 1.61866 16.8658 0 0 0
 126 1 2 1.82941 1.68031 16.7644 0 0 0
 127 1 2 0.376961 -0.643266 18.1545 0 0 0
 128 1 2 2.14102 -0.371566 17.8557 0 0 0
 129 1 2 0.0500431 1.42558 19.3141 0 0 0
 130 1 2 1.66986 1.78843 19.2578 0 0 0
 131 1 2 0.40225 -0.54439 20.6888 0 0 0
 132 1 2 2.19757 -0.305227 20.442 0 0 0
 133 1 2 0.619014 1.68824 21.8585 0 0 0
 134 1 2 2.28216 1.46654 21.9271 0 0 0
 135 1 2 0.225074 -0.363932 23.1241 0 0 0
 136 1 2 2.09332 -0.65622 23.0384 0 0 0
 137 1 2 0.588583 1.59237 24.521 0 0 0
 138 1 2 2.34798 1.28032 24.5588 0 0 0
 139 1 2 0.0982067 -0.576513 25.5976 0 0 0
 140 1 2 1.89872 -0.791153 25.6486 0 0 0
 141 1 2 0.673586 1.49002 27.1551 0 0 0
 142 1 2 2.43651 1.01437 27.2482 0 0 0
 143 1 2 -0.111992 -0.516499 28.1757 0 0 0
 144 1 2 1.64121 -1.18213 28.1669 0 0 0
 145 1 2 0.350608 1.35074 29.7516 0 0 0
 146 1 2 2.13633 1.02281 29.5584 0 0 0
 147 1 2 0.209903 -0.96763 30.7237 0 0 0
 148 1 2 2.08003 -0.962632 30.9099 0 0 0
 149 1 2 -0.0667629 1.04921 31.893 0 0 0
 150 1 2 1.64129 1.20466 32.3745 0 0 0
 151 1 2 -0.256181 -0.998055 33.2431 0 0 0
 152 1 2 1.49887 -1.11869 33.5108 0 0 0
 153 1 2 -0.581379 0.771222 34.762 0 0 0
 154 1 2 1.18481 1.25989 34.78 0 0 0
 155 1 2 -0.0191683 -1.2016 35.9742 0 0 0
 156 1 2 1.75728 -0.753807 36.0052 0 0 0
 157 1 2 -0.452626 0.837356 37.4119 0 0 0
 158 1 2 1.15606 1.36523 37.1266 0 0 0
 159 1 2 0.452508 -1.33516 38.4172 0 0 0
 160 1 2 1.99213 -0.338192 38.6762 0 0 0
 161 1 2 -0.769579 0.376652 39.5536 0 0 0
 162 1 2 0.50912 1.51082 39.7146 0 0 0
 163 1 2 0.186562 -1.31897 40.9178 0 0 0
 164 1 2 1.6734 -0.391953 41.3238 0 0 0
 165 1 2 -1.15557 0.492395 42.2126 0 0 0
 166 1 2 0.474658 1.28998 42.3748 0 0 0
 167 1 2 -0.536313 -1.27421 43.6821 0 0 0
 168 1 2 1.15256 -0.644247 43.7301 0 0 0
 169 1 2 -1.19308 0.449184 45.1428 0 0 0
 170 1 2 0.325971 1.46985 44.809 0 0 0
 171 1 2 0.791816 -1.28637 45.773 0 0 0
 172 1 2 1.69684 0.253314 45.8987 0 0 0
 173 1 2 -0.976614 -0.344763 47.4565 0 0 0
 174 1 2 0.0936069 1.14113 47.6517 0 0 0
 175 1 2 0.831116 -1.72429 48.3134 0 0 0
 176 1 2 1.8932 -0.42584 48.4459 0 0 0
 177 1 2 -0.817965 -0.755407 49.9478 0 0 0
 178 1 2 0.325177 0.654712 50.1617 0 0 0
 179 1 2 0.885251 -2.25116 50.742 0 0 0
 180 1 2 2.05344 -0.790072 50.924 0 0 0
 181 1 2 -0.452605 -0.968219 52.5184 0 0 0
 182 1 2 0.743785 0.301583 52.5914 0 0 0
 183 1 2 0.942393 -2.7065 53.2805 0 0 0
 184 1 2 2.34799 -1.61508 53.4862 0 0 0
 185 1 2 -0.0190105 -1.8624 55.1589 0 0 0
 186 1 2 0.727733 -0.221841 54.9365 0 0 0
 187 1 2 2.38952 -2.71064 55.9878 0 0 0
 188 1 2 2.83909 -1.00627 55.8617 0 0 0
 189 1 2 0.493288 -1.63449 57.5866 0 0 0
 190 1 2 1.77044 -0.217669 57.6044 0 0 0
 191 1 2 2.25119 -3.12938 58.5118 0 0 0
 192 1 2 3.40403 -1.82377 58.6845 0 0 0
 193 1 2 0.681539 -1.96921 59.9515 0 0 0
 194 1 2 1.61723 -0.47513 59.8977 0 0 0
 195 1 2 2.59537 -2.97635 61.4223 0 0 0
 196 1 2 3.31395 -1.35203 61.2274 0 0 0
 197 1 2 0.83795 -2.36602 62.7102 0 0 0
 198 1 2 1.26952 -0.525033 62.4944 0 0 0
 199 1 2 3.03816 -2.74675 63.6889 0 0 0
 200 1 2 3.44924 -0.979615 63.6943 0 0 0
 201 1 2 1.02639 -2.12834 65.3614 0 0 0
 202 1 2 1.53112 -0.367922 65.1582 0 0 0
 203 1 2 3.33704 -2.5171 66.3059 0 0 0
 204 1 2 3.40678 -0.68331 66.5053 0 0 0
 205 1 2 1.29788 -2.44104 67.9121 0 0 0
 206 1 2 1.80518 -0.589702 67.8782 0 0 0
 207 1 2 3.49305 -2.91519 68.9273 0 0 0
 208 1 2 3.54256 -1.12429 69.3183 0 0 0
 209 1 2 1.52359 -3.24782 70.237 0 0 0
 210 1 2 1.2964 -1.42529 70.2618 0 0 0
 211 1 2 3.46036 -3.19579 71.5928 0 0 0
 212 1 2 3.11819 -1.36504 71.9608 0 0 0
 213 1 2 1.11753 -3.42446 72.6565 0 0 0
 214 1 2 1.15082 -1.6914 73.0111 0 0 0
 215 1 2 3.04618 -3.59048 74.3274 0 0 0
 216 1 2 3.25934 -1.827 74.1742 0 0 0
 217 1 2 1.00211 -3.27458 75.4022 0 0 0
 218 1 2 0.979908 -1.51917 75.3806 0 0 0
 219 1 2 2.89763 -3.44534 76.7349 0 0 0
 220 1 2 2.93896 -1.53008 76.8662 0 0 0
 221 1 2 1.03996 -3.57724 77.8516 0 0 0
 222 1 2 0.589672 -1.86434 78.0126 0 0 0
 223 1 2 3.01484 -3.07935 79.2899 0 0 0
 224 1 2 2.32481 -1.35094 79.2617 0 0 0
 225 1 2 0.801319 -3.71811 80.4487 0 0 0
 226 1 2 0.240102 -2.07355 80.4904 0 0 0
 227 1 2 2.71344 -3.28246 81.8721 0 0 0
 228 1 2 1.97542 -1.60697 82.1448 0 0 0
 229 1 2 0.777108 -4.22701 82.9948 0 0 0
 230 1 2 -0.0996638 -2.64778 83.0461 0 0 0
 231 1 2 2.5539 -3.32994 84.5852 0 0 0
 232 1 2 1.62095 -1.87454 84.4877 0 0 0
 233 1 2 0.802069 -4.53856 85.841 0 0 0
 234 1 2 -0.25889 -3.06339 85.6864 0 0 0
 235 1 2 2.39693 -3.53168 87.0736 0 0 0
 236 1 2 1.75343 -1.76692 86.6927 0 0 0
 237 1 2 0.233781 -3.89756 88.1518 0 0 0
 238 1 2 -0.366234 -2.18215 87.9807 0 0 0
 239 1 2 2.06223 -3.33876 89.6711 0 0 0
 240 1 2 1.92067 -1.66971 89.3417 0 0 0
 241 1 2 -0.116825 -3.25968 90.9569 0 0 0
 242 1 2 -0.153467 -1.42832 90.4471 0 0 0
 243 1 2 2.1088 -2.35235 92.0099 0 0 0
 244 1 2 1.62881 -0.760278 91.4353 0 0 0
 245 1 2 0.207737 -2.61786 93.4286 0 0 0
 246 1 2 -0.405443 -0.929922 92.9498 0 0 0
 247 1 2 2.21696 -1.59554 94.6375 0 0 0
 248 1 2 1.58456 -0.0396904 94.11 0 0 0
 249 1 2 -0.156178 -1.89088 95.8691 0 0 0
 250 1 2 -0.233786 -0.159615 95.5262 0 0 0
 251 1 2 1.96279 -1.58444 97.0882 0 0 0
 252 1 2 1.78157 0.106457 97.1618 0 0 0
 253 1 2 0.181252 -1.91224 98.3387 0 0 0
 254 1 2 -0.538464 -0.226651 98.3159 0 0 0
 255 1 2 2.06809 -1.25714 99.5226 0 0 0
 256 1 2 1.32295 0.434495 99.9022 0 0 0
 257 1 2 0.2782 -2.09153 100.873 0 0 0
 258 1 2 -0.497936 -0.362639 100.903 0 0 0
 259 1 2 2.13635 -1.1991 102.138 0 0 0
 260 1 2 1.4587 0.363574 102.141 0 0 0
 261 1 2 0.143039 -2.03084 103.426 0 0 0
 262 1 2 -0.162432 -0.208911 103.783 0 0 0
 263 1 2 2.18728 -1.96517 104.803 0 0 0
 264 1 2 2.08257 -0.200375 104.788 0 0 0
 265 1 2 0.570829 -2.09579 106.382 0 0 0
 266 1 2 -0.06091 -0.526412 106.1 0 0 0
 267 1 2 2.7525 -1.36203 107.068 0 0 0
 268 1 2 2.19174 0.254912 106.974 0 0 0
 269 1 2 1.12321 -2.00396 108.839 0 0 0
 270 1 2 0.365605 -0.471094 108.712 0 0 0
 271 1 2 3.21579 -0.872236 109.72 0 0 0
 272 1 2 2.41762 0.784644 109.471 0 0 0
 273 1 2 1.56294 -1.4429 111.312 0 0 0
 274 1 2 0.69867 0.074059 111.188 0 0 0
 275 1 2 3.58518 -0.306367 112.287 0 0 0
 276 1 2 2.6576 1.3445 112.197 0 0 0
 277 1 2 1.68949 -1.15828 113.588 0 0 0
 278 1 2 0.881905 0.398489 113.525 0 0 0
 279 1 2 3.7521 -0.0427753 114.798 0 0 0
 280 1 2 2.80226 1.46085 114.743 0 0 0
 281 1 2 1.92527 -1.30553 115.944 0 0 0
 282 1 2 0.978003 0.141213 116.244 0 0 0
 283 1 2 3.89591 -0.476644 117.28 0 0 0
 284 1 2 3.09064 1.04339 117.549 0 0 0
 285 1 2 2.12759 -1.78458 118.481 0 0 0
 286 1 2 1.3389 -0.156914 118.795 0 0 0
 287 1 2 4.01707 -1.27487 119.864 0 0 0
 288 1 2 3.40977 0.573236 119.866 0 0 0
 289 1 2 2.17902 -1.85589 121.276 0 0 0
 290 1 2 1.51993 -0.323813 121.014 0 0 0
 291 1 2 4.02544 -0.977259 122.592 0 0 0
 292 1 2 3.53961 0.71161 122.344 0 0 0
 293 1 2 1.4858 0.137799 123.7 0 0 0
 294 1 2 2.96038 0.376326 124.459 0 0 0
 295 2 4 -2.45 0.42476 -0.0123869 0 0 0
 296 2 4 -2.55574 -0.756465 0.970298 0 0 0
 297 2 4 -2.70615 -0.113959 2.37512 0 0 0
 298 2 1 -2.68777 -1.00907 3.5786 0 0 0
 299 2 1 -2.93664 -0.124357 4.86222 0 0 0
 300 2 1 -2.98373 -0.999317 6.13302 0 0 0
 301 2 1 -2.71432 -0.26826 7.44942 0 0 0
 302 2 1 -2.76584 -1.15363 8.72247 0 0 0
 303 2 1 -3.00181 -0.320477 9.97828 0 0 0
 304 2 1 -2.85281 -0.957708 11.3486 0 0 0
 305 2 1 -3.17762 -0.0942344 12.5565 0 0 0
 306 2 1 -3.05713 -0.778542 13.9308 0 0 0
 307 2 1 -3.25851 0.0747791 15.1789 0 0 0
 308 2 1 -3.02213 -0.759822 16.4987 0 0 0
 309 2 1 -3.19908 0.00378004 17.8137 0 0 0
 310 2 1 -2.88324 -0.840768 19.0854 0 0 0
 311 2 1 -3.27969 -0.0618707 20.3566 0 0 0
 312 2 1 -3.11654 -0.72146 21.7461 0 0 0
 313 2 1 -3.14858 0.207758 22.888 0 0 0
 314 2 1 -3.22275 -0.616673 24.1962 0 0 0
 315 2 1 -3.44367 0.0567415 25.5936 0 0 0
 316 2 1 -3.5987 -0.980628 26.6924 0 0 0
 317 2 1 -3.44184 -0.363809 28.1121 0 0 0
 318 2 1 -3.38935 -1.41695 29.2422 0 0 0
 319 2 1 -3.39811 -0.769904 30.6012 0 0 0
 320 2 1 -3.41216 -1.72333 31.8032 0 0 0
 321 2 1 -3.29172 -1.07265 33.1814 0 0 0
 322 2 1 -3.19311 -2.0828 34.3401 0 0 0
 323 2 1 -3.13767 -1.52272 35.7526 0 0 0
 324 2 1 -2.95407 -2.41508 36.9705 0 0 0
 325 2 1 -3.35813 -1.64147 38.2579 0 0 0
 326 2 1 -2.79244 -2.26718 39.5317 0 0 0
 327 2 1 -3.21184 -1.70245 40.8729 0 0 0
 328 2 1 -2.9237 -2.65548 42.0247 0 0 0
 329 2 1 -3.6056 -2.31738 43.3956 0 0 0
 330 2 1 -3.06376 -3.09078 44.6187 0 0 0
 331 2 1 -3.66051 -2.88765 46.0421 0 0 0
 332 2 1 -3.01185 -3.61543 47.188 0 0 0
 333 2 1 -3.34751 -3.13029 48.6178 0 0 0
 334 2 1 -2.63717 -3.78919 49.7847 0 0 0
 335 2 1 -2.96935 -3.10667 51.0947 0 0 0
 336 2 1 -2.28554 -3.84308 52.2942 0 0 0
 337 2 1 -2.73443 -3.30711 53.6513 0 0 0
 338 2 1 -2.18158 -3.98401 54.928 0 0 0
 339 2 1 -2.50283 -3.3263 56.2595 0 0 0
 340 2 1 -2.10341 -4.33563 57.3785 0 0 0
 341 2 1 -2.36279 -3.69848 58.7365 0 0 0
 342 2 1 -1.86033 -4.45299 59.9926 0 0 0
 343 2 1 -2.36187 -3.84187 61.3109 0 0 0
 344 2 1 -2.00008 -4.54444 62.664 0 0 0
 345 2 1 -2.04647 -3.63473 63.9307 0 0 0
 346 2 1 -1.75815 -4.23268 65.3171 0 0 0
 347 2 1 -1.86493 -3.21855 66.5307 0 0 0
 348 2 1 -1.72097 -4.04727 67.7957 0 0 0
 349 2 1 -1.83892 -2.99906 68.9276 0 0 0
 350 2 1 -1.98915 -3.6076 70.3617 0 0 0
 351 2 1 -2.10621 -2.67627 71.5778 0 0 0
 352 2 1 -2.03384 -3.42296 72.8999 0 0 0
 353 2 1 -2.28346 -2.57196 74.1412 0 0 0
 354 2 1 -2.72451 -3.39885 75.3568 0 0 0
 355 2 1 -2.59168 -2.62233 76.6724 0 0 0
 356 2 1 -3.2154 -3.14996 77.969 0 0 0
 357 2 1 -3.07597 -2.38626 79.2727 0 0 0
 358 2 1 -3.33314 -3.13192 80.582 0 0 0
 359 2 1 -3.20746 -2.25982 81.8429 0 0 0
 360 2 1 -3.31241 -3.02034 83.2291 0 0 0
 361 2 1 -3.46731 -2.01353 84.3693 0 0 0
 362 2 1 -3.80999 -2.59315 85.7052 0 0 0
 363 2 1 -3.70682 -1.70277 87.0028 0 0 0
 364 2 1 -3.93982 -2.55161 88.2242 0 0 0
 365 2 1 -3.44998 -1.94254 89.5584 0 0 0
 366 2 1 -3.67745 -2.8677 90.7633 0 0 0
 367 2 1 -3.04497 -2.26083 92.0202 0 0 0
 368 2 1 -3.89128 -2.3566 93.1933 0 0 0
 369 2 1 -3.04671 -1.97475 94.4255 0 0 0
 370 2 1 -3.75795 -2.28995 95.7565 0 0 0
 371 2 1 -2.99155 -1.89354 97.0283 0 0 0
 372 2 1 -3.62587 -2.28251 98.395 0 0 0
 373 2 1 -2.94917 -1.68017 99.6174 0 0 0
 374 2 1 -3.5724 -2.18663 100.923 0 0 0
 375 2 1 -3.02957 -1.4157 102.153 0 0 0
 376 2 1 -3.64352 -1.99983 103.422 0 0 0
 377 2 1 -3.07023 -1.33978 104.737 0 0 0
 378 2 1 -3.50349 -2.10046 106.049 0 0 0
 379 2 1 -2.73578 -1.65527 107.356 0 0 0
 380 2 1 -3.21436 -2.26598 108.671 0 0 0
 381 2 1 -2.44347 -1.64972 109.881 0 0 0
 382 2 1 -2.83366 -2.26096 111.228 0 0 0
 383 2 1 -2.36959 -1.3821 112.356 0 0 0
 384 2 1 -2.97317 -1.6524 113.752 0 0 0
 385 2 1 -2.34774 -0.708885 114.795 0 0 0
 386 2 1 -2.90202 -1.02767 116.181 0 0 0
 387 2 1 -2.3019 -0.24945 117.383 0 0 0
 388 2 1 -2.97239 -0.516306 118.758 0 0 0
 389 2 1 -2.08678 -0.169063 119.929 0 0 0
 390 2 3 -2.77167 -0.333673 121.303 0 0 0
 391 2 3 -1.89602 0.043636 122.53 0 0 0
 392 2 3 -2.45 -0.425 123.881 0 0 0
 393 2 2 -1.49288 0.933783 0.227412 0 0 0
 394 2 2 -3.32218 1.08059 0.262347 0 0 0
 395 2 2 -1.5689 -1.30543 0.854323 0 0 0
 396 2 2 -3.46096 -1.3595 0.606531 0 0 0
 397 2 2 -1.87886 0.555782 2.46053 0 0 0
 398 2 2 -3.71026 0.329937 2.35585 0 0 0
 399 2 2 -1.68228 -1.47936 3.56739 0 0 0
 400 2 2 -3.64277 -1.57453 3.68103 0 0 0
 401 2 2 -2.16247 0.631847 4.95677 0 0 0
 402 2 2 -3.79946 0.440281 4.58452 0 0 0
 403 2 2 -2.41645 -1.89981 6.01214 0 0 0
 404 2 2 -4.06349 -1.3334 6.06777 0 0 0
 405 2 2 -1.72785 0.110983 7.35134 0 0 0
 406 2 2 -3.53362 0.482124 7.57112 0 0 0
 407 2 2 -1.89866 -1.7672 8.72352 0 0 0
 408 2 2 -3.64819 -1.87599 8.73255 0 0 0
 409 2 2 -2.25005 0.481252 9.96166 0 0 0
 410 2 2 -3.93808 0.0849247 9.78588 0 0 0
 411 2 2 -1.77592 -1.16002 11.4903 0 0 0
 412 2 2 -3.47882 -1.90746 11.296 0 0 0
 413 2 2 -2.57063 0.802825 12.6596 0 0 0
 414 2 2 -4.16992 0.23302 12.4025 0 0 0
 415 2 2 -2.06725 -1.29342 13.9969 0 0 0
 416 2 2 -3.77624 -1.60062 14.0433 0 0 0
 417 2 2 -2.50428 0.917378 15.2557 0 0 0
 418 2 2 -4.25626 0.428317 15.3615 0 0 0
 419 2 2 -1.96379 -1.14719 16.6241 0 0 0
 420 2 2 -3.76011 -1.62264 16.5875 0 0 0
 421 2 2 -2.45275 0.79756 17.8229 0 0 0
 422 2 2 -4.25004 0.346002 17.9782 0 0 0
 423 2 2 -1.83638 -1.04407 19.0849 0 0 0
 424 2 2 -3.5255 -1.6588 18.9168 0 0 0
 425 2 2 -2.72245 0.955995 20.3878 0 0 0
 426 2 2 -4.34082 0.253747 20.3893 0 0 0
 427 2 2 -2.07018 -1.11287 21.9417 0 0 0
 428 2 2 -3.9365 -1.39359 21.8599 0 0 0
 429 2 2 -2.19647 0.844247 22.8739 0 0 0
 430 2 2 -3.99605 0.917804 22.7442 0 0 0
 431 2 2 -2.17379 -0.920135 24.4572 0 0 0
 432 2 2 -3.9167 -1.41081 24.1539 0 0 0
 433 2 2 -2.44735 0.490599 25.785 0 0 0
 434 2 2 -4.17797 0.863116 25.6355 0 0 0
 435 2 2 -2.85841 -1.78043 26.5989 0 0 0
 436 2 2 -4.60685 -1.50376 26.5533 0 0 0
 437 2 2 -2.52475 0.173802 28.0803 0 0 0
 438 2 2 -4.26847 0.374384 28.3185 0 0 0
 439 2 2 -2.60583 -2.0759 28.993 0 0 0
 440 2 2 -4.33865 -2.00244 29.2428 0 0 0
 441 2 2 -2.46498 -0.162098 30.7046 0 0 0
 442 2 2 -4.27866 -0.127203 30.6194 0 0 0
 443 2 2 -2.43017 -2.25595 31.5554 0 0 0
 444 2 2 -4.31931 -2.39591 31.7822 0 0 0
 445 2 2 -2.28557 -0.562172 33.3159 0 0 0
 446 2 2 -4.16494 -0.490053 33.3155 0 0 0
 447 2 2 -2.24895 -2.73693 34.2114 0 0 0
 448 2 2 -4.13844 -2.69104 34.1936 0 0 0
 449 2 2 -2.18136 -0.992496 35.5511 0 0 0
 450 2 2 -3.95926 -0.789707 35.8464 0 0 0
 451 2 2 -1.94994 -2.79884 36.9601 0 0 0
 452 2 2 -3.61626 -3.24889 36.7949 0 0 0
 453 2 2 -3.01196 -0.635921 38.2721 0 0 0
 454 2 2 -4.39459 -1.54162 38.2476 0 0 0
 455 2 2 -1.70065 -2.11264 39.4358 0 0 0
 456 2 2 -3.13572 -3.35278 39.5232 0 0 0
 457 2 2 -2.59873 -0.767584 40.9789 0 0 0
 458 2 2 -4.28782 -1.45623 40.6765 0 0 0
 459 2 2 -1.84147 -2.88537 42.1472 0 0 0
 460 2 2 -3.52225 -3.50718 41.622 0 0 0
 461 2 2 -3.46896 -1.26561 43.6191 0 0 0
 462 2 2 -4.66022 -2.45278 43.3876 0 0 0
 463 2 2 -2.03366 -2.8471 44.7329 0 0 0
 464 2 2 -3.13773 -4.11555 44.3064 0 0 0
 465 2 2 -3.4631 -1.81306 46.1108 0 0 0
 466 2 2 -4.74214 -3.17321 45.9023 0 0 0
 467 2 2 -1.84914 -3.53707 47.0912 0 0 0
 468 2 2 -3.37715 -4.65583 47.1104 0 0 0
 469 2 2 -3.03659 -2.08333 48.6714 0 0 0
 470 2 2 -4.40149 -3.22217 48.8374 0 0 0
 471 2 2 -1.51582 -3.83905 49.7433 0 0 0
 472 2 2 -3.08715 -4.77903 49.7127 0 0 0
 473 2 2 -2.48754 -2.10876 51.0188 0 0 0
 474 2 2 -4.07657 -3.07557 51.186 0 0 0
 475 2 2 -1.15405 -3.72159 52.2264 0 0 0
 476 2 2 -2.61345 -4.91239 52.2597 0 0 0
 477 2 2 -2.44167 -2.27527 53.5123 0 0 0
 478 2 2 -3.82222 -3.37441 53.6586 0 0 0
 479 2 2 -1.17643 -4.13188 54.9063 0 0 0
 480 2 2 -2.66146 -5.00996 54.8898 0 0 0
 481 2 2 -1.97064 -2.46602 56.49 0 0 0
 482 2 2 -3.55132 -3.29946 56.3979 0 0 0
 483 2 2 -1.04134 -4.4045 57.2798 0 0 0
 484 2 2 -2.7167 -5.25115 57.3732 0 0 0
 485 2 2 -1.74316 -2.75225 58.6947 0 0 0
 486 2 2 -3.4549 -3.4969 58.7364 0 0 0
 487 2 2 -0.720607 -4.491 60.0132 0 0 0
 488 2 2 -2.41177 -5.45144 59.9927 0 0 0
 489 2 2 -1.74276 -2.95217 61.4266 0 0 0
 490 2 2 -3.46109 -3.58606 61.16 0 0 0
 491 2 2 -1.06052 -5.0009 62.5226 0 0 0
 492 2 2 -2.77168 -5.31299 62.7246 0 0 0
 493 2 2 -1.36654 -2.79894 63.7256 0 0 0
 494 2 2 -2.98441 -3.19885 63.8507 0 0 0
 495 2 2 -0.723816 -4.48517 65.5053 0 0 0
 496 2 2 -2.39927 -5.08084 65.4637 0 0 0
 497 2 2 -0.941925 -2.55391 66.4238 0 0 0
 498 2 2 -2.79733 -2.66956 66.5257 0 0 0
 499 2 2 -0.66147 -4.34158 67.8219 0 0 0
 500 2 2 -2.47051 -4.85617 67.9287 0 0 0
 501 2 2 -0.956326 -2.40101 68.7257 0 0 0
 502 2 2 -2.80551 -2.56602 68.6332 0 0 0
 503 2 2 -1.14102 -4.3081 70.5501 0 0 0
 504 2 2 -2.95573 -4.2006 70.3717 0 0 0
 505 2 2 -1.30848 -1.92427 71.4614 0 0 0
 506 2 2 -3.15021 -2.20203 71.5369 0 0 0
 507 2 2 -1.15424 -4.01037 73.0599 0 0 0
 508 2 2 -2.83384 -4.12955 72.9619 0 0 0
 509 2 2 -1.40241 -1.95497 74.4879 0 0 0
 510 2 2 -3.11704 -1.84939 73.8691 0 0 0
 511 2 2 -2.10914 -4.3107 75.4227 0 0 0
 512 2 2 -3.80965 -3.63729 75.2264 0 0 0
 513 2 2 -1.55373 -2.57076 77.089 0 0 0
 514 2 2 -3.04688 -1.66399 76.4466 0 0 0
 515 2 2 -2.77637 -4.21882 78.0524 0 0 0
 516 2 2 -4.31863 -3.2541 77.7586 0 0 0
 517 2 2 -2.02332 -1.95767 79.2658 0 0 0
 518 2 2 -3.82702 -1.54534 79.3186 0 0 0
 519 2 2 -2.46796 -3.8798 80.7212 0 0 0
 520 2 2 -4.32175 -3.65579 80.5539 0 0 0
 521 2 2 -2.24511 -1.90134 81.6655 0 0 0
 522 2 2 -4.00468 -1.48795 81.6861 0 0 0
 523 2 2 -2.33629 -3.5599 83.4459 0 0 0
 524 2 2 -4.17779 -3.73306 83.3599 0 0 0
 525 2 2 -2.41923 -1.67168 84.5331 0 0 0
 526 2 2 -4.26923 -1.22492 84.1318 0 0 0
 527 2 2 -3.09644 -3.4716 85.8516 0 0 0
 528 2 2 -4.78071 -3.02331 85.6956 0 0 0
 529 2 2 -2.71141 -1.26657 86.9611 0 0 0
 530 2 2 -4.44233 -0.902283 87.0099 0 0 0
 531 2 2 -3.60559 -3.63239 88.0611 0 0 0
 532 2 2 -5.0007 -2.65352 88.338 0 0 0
 533 2 2 -2.31874 -1.67856 89.4703 0 0 0
 534 2 2 -4.10128 -1.01084 89.6371 0 0 0
 535 2 2 -3.10002 -3.78484 90.6154 0 0 0
 536 2 2 -4.80012 -2.95771 90.9065 0 0 0
 537 2 2 -2.18497 -2.91137 92.2221 0 0 0
 538 2 2 -2.85967 -1.23509 91.8785 0 0 0
 539 2 2 -4.30834 -3.37993 93.354 0 0 0
 540 2 2 -4.63036 -1.5891 93.1777 0 0 0
 541 2 2 -2.11755 -2.66998 94.4777 0 0 0
 542 2 2 -2.8363 -0.890244 94.3161 0 0 0
 543 2 2 -3.84493 -3.44336 95.6947 0 0 0
 544 2 2 -4.78077 -1.83343 95.7771 0 0 0
 545 2 2 -1.97012 -2.21117 96.9264 0 0 0
 546 2 2 -3.06734 -0.786856 96.9172 0 0 0
 547 2 2 -3.59379 -3.34639 98.5784 0 0 0
 548 2 2 -4.66483 -2.00749 98.4906 0 0 0
 549 2 2 -1.89483 -2.04839 99.6168 0 0 0
 550 2 2 -3.07979 -0.595478 99.5936 0 0 0
 551 2 2 -3.32998 -3.27394 100.953 0 0 0
 552 2 2 -4.68875 -1.96489 100.813 0 0 0
 553 2 2 -1.94794 -1.54825 102.21 0 0 0
 554 2 2 -3.34039 -0.372601 102.037 0 0 0
 555 2 2 -3.3206 -3.05909 103.404 0 0 0
 556 2 2 -4.70619 -1.79268 103.334 0 0 0
 557 2 2 -2.02328 -1.40352 104.97 0 0 0
 558 2 2 -3.40734 -0.310515 104.734 0 0 0
 559 2 2 -3.18717 -3.14235 106.001 0 0 0
 560 2 2 -4.65324 -1.96551 106.222 0 0 0
 561 2 2 -1.67441 -1.89513 107.295 0 0 0
 562 2 2 -2.91134 -0.614401 107.351 0 0 0
 563 2 2 -3.07825 -3.34918 108.696 0 0 0
 564 2 2 -4.24489 -1.83384 108.807 0 0 0
 565 2 2 -1.36916 -1.90968 109.806 0 0 0
 566 2 2 -2.61322 -0.559856 109.858 0 0 0
 567 2 2 -2.35507 -3.22928 111.249 0 0 0
 568 2 2 -3.90079 -2.32537 111.351 0 0 0
 569 2 2 -1.30328 -1.5458 112.501 0 0 0
 570 2 2 -2.55667 -0.339402 112.092 0 0 0
 571 2 2 -2.95962 -2.71597 113.982 0 0 0
 572 2 2 -4.07032 -1.34344 113.662 0 0 0
 573 2 2 -1.24993 -0.941518 114.937 0 0 0
 574 2 2 -2.50488 0.368944 114.588 0 0 0
 575 2 2 -2.90868 -2.16458 116.423 0 0 0
 576 2 2 -3.96872 -0.682041 116.076 0 0 0
 577 2 2 -1.32856 -0.666466 117.576 0 0 0
 578 2 2 -2.35119 0.855791 117.18 0 0 0
 579 2 2 -3.21299 -1.64812 118.833 0 0 0
 580 2 2 -3.88905 0.0427153 118.772 0 0 0
 581 2 2 -1.23914 -0.955776 119.782 0 0 0
 582 2 2 -1.68943 0.856472 119.936 0 0 0
 583 2 2 -3.15045 -1.3422 121.369 0 0 0
 584 2 2 -3.57677 0.344041 121.187 0 0 0
 585 2 2 -0.986001 -0.592831 122.511 0 0 0
 586 2 2 -1.65033 1.12276 122.622 0 0 0
 587 2 2 -1.90218 0.123154 124.736 0 0 0
 588 2 2 -3.55007 -0.190285 123.95 0 0 0

Bonds
 
  1 1 1 2
  2 1 2 3
  3 1 3 4
  4 1 4 5
  5 1 5 6
  6 1 6 7
  7 1 7 8
  8 1 8 9
  9 1 9 10
  10 1 10 11
  11 1 11 12
  12 1 12 13
  13 1 13 14
  14 1 14 15
  15 1 15 16
  16 1 16 17
  17 1 17 18
  18 1 18 19
  19 1 19 20
  20 1 20 21
  21 1 21 22
  22 1 22 23
  23 1 23 24
  24 1 24 25
  25 1 25 26
  26 1 26 27
  27 1 27 28
  28 1 28 29
  29 1 29 30
  30 1 30 31
  31 1 31 32
  32 1 32 33
  33 1 33 34
  34 1 34 35
  35 1 35 36
  36 1 36 37
  37 1 37 38
  38 1 38 39
  39 1 39 40
  40 1 40 41
  41 1 41 42
  42 1 42 43
  43 1 43 44
  44 1 44 45
  45 1 45 46
  46 1 46 47
  47 1 47 48
  48 1 48 49
  49 1 49 50
  50 1 50 51
  51 1 51 52
  52 1 52 53
  53 1 53 54
  54 1 54 55
  55 1 55 56
  56 1 56 57
  57 1 57 58
  58 1 58 59
  59 1 59 60
  60 1 60 61
  61 1 61 62
  62 1 62 63
  63 1 63 64
  64 1 64 65
  65 1 65 66
  66 1 66 67
  67 1 67 68
  68 1 68 69
  69 1 69 70
  70 1 70 71
  71 1 71 72
  72 1 72 73
  73 1 73 74
  74 1 74 75
  75 1 75 76
  76 1 76 77
  77 1 77 78
  78 1 78 79
  79 1 79 80
  80 1 80 81
  81 1 81 82
  82 1 82 83
  83 1 83 84
  84 1 84 85
  85 1 85 86
  86 1 86 87
  87 1 87 88
  88 1 88 89
  89 1 89 90
  90 1 90 91
  91 1 91 92
  92 1 92 93
  93 1 93 94
  94 1 94 95
  95 1 95 96
  96 1 96 97
  97 1 97 98
  98 1 295 296
  99 1 296 297
  100 1 297 298
  101 1 298 299
  102 1 299 300
  103 1 300 301
  104 1 301 302
  105 1 302 303
  106 1 303 304
  107 1 304 305
  108 1 305 306
  109 1 306 307
  110 1 307 308
  111 1 308 309
  112 1 309 310
  113 1 310 311
  114 1 311 312
  115 1 312 313
  116 1 313 314
  117 1 314 315
  118 1 315 316
  119 1 316 317
  120 1 317 318
  121 1 318 319
  122 1 319 320
  123 1 320 321
  124 1 321 322
  125 1 322 323
  126 1 323 324
  127 1 324 325
  128 1 325 326
  129 1 326 327
  130 1 327 328
  131 1 328 329
  132 1 329 330
  133 1 330 331
  134 1 331 332
  135 1 332 333
  136 1 333 334
  137 1 334 335
  138 1 335 336
  139 1 336 337
  140 1 337 338
  141 1 338 339
  142 1 339 340
  143 1 340 341
  144 1 341 342
  145 1 342 343
  146 1 343 344
  147 1 344 345
  148 1 345 346
  149 1 346 347
  150 1 347 348
  151 1 348 349
  152 1 349 350
  153 1 350 351
  154 1 351 352
  155 1 352 353
  156 1 353 354
  157 1 354 355
  158 1 355 356
  159 1 356 357
  160 1 357 358
  161 1 358 359
  162 1 359 360
  163 1 360 361
  164 1 361 362
  165 1 362 363
  166 1 363 364
  167 1 364 365
  168 1 365 366
  169 1 366 367
  170 1 367 368
  171 1 368 369
  172 1 369 370
  173 1 370 371
  174 1 371 372
  175 1 372 373
  176 1 373 374
  177 1 374 375
  178 1 375 376
  179 1 376 377
  180 1 377 378
  181 1 378 379
  182 1 379 380
  183 1 380 381
  184 1 381 382
  185 1 382 383
  186 1 383 384
  187 1 384 385
  188 1 385 386
  189 1 386 387
  190 1 387 388
  191 1 388 389
  192 1 389 390
  193 1 390 391
  194 1 391 392
  195 2 1 99
  196 2 2 101
  197 2 3 103
  198 2 4 105
  199 2 5 107
  200 2 6 109
  201 2 7 111
  202 2 8 113
  203 2 9 115
  204 2 10 117
  205 2 11 119
  206 2 12 121
  207 2 13 123
  208 2 14 125
  209 2 15 127
  210 2 16 129
  211 2 17 131
  212 2 18 133
  213 2 19 135
  214 2 20 137
  215 2 21 139
  216 2 22 141
  217 2 23 143
  218 2 24 145
  219 2 25 147
  220 2 26 149
  221 2 27 151
  222 2 28 153
  223 2 29 155
  224 2 30 157
  225 2 31 159
  226 2 32 161
  227 2 33 163
  228 2 34 165
  229 2 35 167
  230 2 36 169
  231 2 37 171
  232 2 38 173
  233 2 39 175
  234 2 40 177
  235 2 41 179
  236 2 42 181
  237 2 43 183
  238 2 44 185
  239 2 45 187
  240 2 46 189
  241 2 47 191
  242 2 48 193
  243 2 49 195
  244 2 50 197
  245 2 51 199
  246 2 52 201
  247 2 53 203
  248 2 54 205
  249 2 55 207
  250 2 56 209
  251 2 57 211
  252 2 58 213
  253 2 59 215
  254 2 60 217
  255 2 61 219
  256 2 62 221
  257 2 63 223
  258 2 64 225
  259 2 65 227
  260 2 66 229
  261 2 67 231
  262 2 68 233
  263 2 69 235
  264 2 70 237
  265 2 71 239
  266 2 72 241
  267 2 73 243
  268 2 74 245
  269 2 75 247
  270 2 76 249
  271 2 77 251
  272 2 78 253
  273 2 79 255
  274 2 80 257
  275 2 81 259
  276 2 82 261
  277 2 83 263
  278 2 84 265
  279 2 85 267
  280 2 86 269
  281 2 87 271
  282 2 88 273
  283 2 89 275
  284 2 90 277
  285 2 91 279
  286 2 92 281
  287 2 93 283
  288 2 94 285
  289 2 95 287
  290 2 96 289
  291 2 97 291
  292 2 98 293
  293 2 1 100
  294 2 2 102
  295 2 3 104
  296 2 4 106
  297 2 5 108
  298 2 6 110
  299 2 7 112
  300 2 8 114
  301 2 9 116
  302 2 10 118
  303 2 11 120
  304 2 12 122
  305 2 13 124
  306 2 14 126
  307 2 15 128
  308 2 16 130
  309 2 17 132
  310 2 18 134
  311 2 19 136
  312 2 20 138
  313 2 21 140
  314 2 22 142
  315 2 23 144
  316 2 24 146
  317 2 25 148
  318 2 26 150
  319 2 27 152
  320 2 28 154
  321 2 29 156
  322 2 30 158
  323 2 31 160
  324 2 32 162
  325 2 33 164
  326 2 34 166
  327 2 35 168
  328 2 36 170
  329 2 37 172
  330 2 38 174
  331 2 39 176
  332 2 40 178
  333 2 41 180
  334 2 42 182
  335 2 43 184
  336 2 44 186
  337 2 45 188
  338 2 46 190
  339 2 47 192
  340 2 48 194
  341 2 49 196
  342 2 50 198
  343 2 51 200
  344 2 52 202
  345 2 53 204
  346 2 54 206
  347 2 55 208
  348 2 56 210
  349 2 57 212
  350 2 58 214
  351 2 59 216
  352 2 60 218
  353 2 61 220
  354 2 62 222
  355 2 63 224
  356 2 64 226
  357 2 65 228
  358 2 66 230
  359 2 67 232
  360 2 68 234
  361 2 69 236
  362 2 70 238
  363 2 71 240
  364 2 72 242
  365 2 73 244
  366 2 74 246
  367 2 75 248
  368 2 76 250
  369 2 77 252
  370 2 78 254
  371 2 79 256
  372 2 80 258
  373 2 81 260
  374 2 82 262
  375 2 83 264
  376 2 84 266
  377 2 85 268
  378 2 86 270
  379 2 87 272
  380 2 88 274
  381 2 89 276
  382 2 90 278
  383 2 91 280
  384 2 92 282
  385 2 93 284
  386 2 94 286
  387 2 95 288
  388 2 96 290
  389 2 97 292
  390 2 98 294
  391 2 295 393