LAMMPS UA chain data file
 
         72  atoms
         70  bonds
         68  angles
         66  dihedrals
           0  impropers
 
           3  atom types
           1  bond types
           1  angle types
           1  dihedral types
           0  improper types
 
    -400.000000     400.000000 xlo xhi
    -400.000000     400.000000 ylo yhi
    0.000000      45.000000 zlo zhi
 
Masses
 
  1   14.00
  2   14.00
  3   14.00
 
Atoms
 
         1       1       3   -3.1107   -0.2411    0.0000   0   0   0
         2       1       3   -3.6957   -0.3991    1.4606   0   0   0
         3       1       3   -2.9408   -1.2484    2.4936   0   0   0
         4       1       1   -3.5834   -1.4383    3.9105   0   0   0
         5       1       1   -2.7937   -2.1944    5.0078   0   0   0
         6       1       1   -3.4461   -1.9917    6.3603   0   0   0
         7       1       1   -2.9801   -2.7843    7.6280   0   0   0
         8       1       1   -3.7364   -2.4067    8.8727   0   0   0
         9       1       1   -3.1370   -3.0843   10.1189   0   0   0
        10       1       1   -3.4826   -2.3616   11.4176   0   0   0
        11       1       1   -3.0202   -3.2739   12.5376   0   0   0
        12       1       1   -3.4831   -2.6932   13.9478   0   0   0
        13       1       1   -3.2937   -3.4888   15.2736   0   0   0
        14       1       1   -3.7644   -2.5528   16.3944   0   0   0
        15       1       1   -3.9419   -3.3281   17.7017   0   0   0
        16       1       1   -3.7554   -2.4562   18.9009   0   0   0
        17       1       1   -3.7003   -3.3014   20.1831   0   0   0
        18       1       1   -3.4498   -2.3508   21.4173   0   0   0
        19       1       1   -3.6982   -3.1723   22.7224   0   0   0
        20       1       1   -3.8034   -2.2933   23.9827   0   0   0
        21       1       1   -3.6595   -3.0845   25.2787   0   0   0
        22       1       1   -3.5191   -2.1683   26.5184   0   0   0
        23       1       1   -3.3444   -2.8607   27.8225   0   0   0
        24       1       1   -3.5421   -2.0215   29.0893   0   0   0
        25       1       1   -3.3166   -2.7436   30.4099   0   0   0
        26       1       1   -3.5813   -1.7217   31.5411   0   0   0
        27       1       1   -3.1970   -2.3710   32.8866   0   0   0
        28       1       1   -3.4103   -1.5071   34.1482   0   0   0
        29       1       1   -2.6022   -1.8150   35.3384   0   0   0
        30       1       1   -3.2295   -1.2271   36.6118   0   0   0
        31       1       1   -2.7260   -1.9614   37.9204   0   0   0
        32       1       1   -3.2461   -1.2695   39.2394   0   0   0
        33       1       1   -2.8861   -1.9354   40.5204   0   0   0
        34       1       2   -3.2105   -0.9516   41.6760   0   0   0
        35       1       2   -2.7795   -1.6020   42.9735   0   0   0
        36       1       2   -3.1141   -0.6745   44.2127   0   0   0
        37       2       3    1.7893   -0.2411    0.0000   0   0   0
        38       2       3    1.2043   -0.3991    1.4606   0   0   0
        39       2       3    1.9592   -1.2484    2.4936   0   0   0
        40       2       1    1.3166   -1.4383    3.9105   0   0   0
        41       2       1    2.1063   -2.1944    5.0078   0   0   0
        42       2       1    1.4539   -1.9917    6.3603   0   0   0
        43       2       1    1.9199   -2.7843    7.6280   0   0   0
        44       2       1    1.1636   -2.4067    8.8727   0   0   0
        45       2       1    1.7630   -3.0843   10.1189   0   0   0
        46       2       1    1.4174   -2.3616   11.4176   0   0   0
        47       2       1    1.8798   -3.2739   12.5376   0   0   0
        48       2       1    1.4169   -2.6932   13.9478   0   0   0
        49       2       1    1.6063   -3.4888   15.2736   0   0   0
        50       2       1    1.1356   -2.5528   16.3944   0   0   0
        51       2       1    0.9581   -3.3281   17.7017   0   0   0
        52       2       1    1.1446   -2.4562   18.9009   0   0   0
        53       2       1    1.1997   -3.3014   20.1831   0   0   0
        54       2       1    1.4502   -2.3508   21.4173   0   0   0
        55       2       1    1.2018   -3.1723   22.7224   0   0   0
        56       2       1    1.0966   -2.2933   23.9827   0   0   0
        57       2       1    1.2405   -3.0845   25.2787   0   0   0
        58       2       1    1.3809   -2.1683   26.5184   0   0   0
        59       2       1    1.5556   -2.8607   27.8225   0   0   0
        60       2       1    1.3579   -2.0215   29.0893   0   0   0
        61       2       1    1.5834   -2.7436   30.4099   0   0   0
        62       2       1    1.3187   -1.7217   31.5411   0   0   0
        63       2       1    1.7030   -2.3710   32.8866   0   0   0
        64       2       1    1.4897   -1.5071   34.1482   0   0   0
        65       2       1    2.2978   -1.8150   35.3384   0   0   0
        66       2       1    1.6705   -1.2271   36.6118   0   0   0
        67       2       1    2.1740   -1.9614   37.9204   0   0   0
        68       2       1    1.6539   -1.2695   39.2394   0   0   0
        69       2       1    2.0139   -1.9354   40.5204   0   0   0
        70       2       2    1.6895   -0.9516   41.6760   0   0   0
        71       2       2    2.1205   -1.6020   42.9735   0   0   0
        72       2       2    1.7859   -0.6745   44.2127   0   0   0
 
Bonds
 
       1         1         1       2
       2         1         2       3
       3         1         3       4
       4         1         4       5
       5         1         5       6
       6         1         6       7
       7         1         7       8
       8         1         8       9
       9         1         9      10
      10         1        10      11
      11         1        11      12
      12         1        12      13
      13         1        13      14
      14         1        14      15
      15         1        15      16
      16         1        16      17
      17         1        17      18
      18         1        18      19
      19         1        19      20
      20         1        20      21
      21         1        21      22
      22         1        22      23
      23         1        23      24
      24         1        24      25
      25         1        25      26
      26         1        26      27
      27         1        27      28
      28         1        28      29
      29         1        29      30
      30         1        30      31
      31         1        31      32
      32         1        32      33
      33         1        33      34
      34         1        34      35
      35         1        35      36
      36         1        37      38
      37         1        38      39
      38         1        39      40
      39         1        40      41
      40         1        41      42
      41         1        42      43
      42         1        43      44
      43         1        44      45
      44         1        45      46
      45         1        46      47
      46         1        47      48
      47         1        48      49
      48         1        49      50
      49         1        50      51
      50         1        51      52
      51         1        52      53
      52         1        53      54
      53         1        54      55
      54         1        55      56
      55         1        56      57
      56         1        57      58
      57         1        58      59
      58         1        59      60
      59         1        60      61
      60         1        61      62
      61         1        62      63
      62         1        63      64
      63         1        64      65
      64         1        65      66
      65         1        66      67
      66         1        67      68
      67         1        68      69
      68         1        69      70
      69         1        70      71
      70         1        71      72
     

 
Angles
 
           1           1           1           2           3
           2           1           2           3           4
           3           1           3           4           5
           4           1           4           5           6
           5           1           5           6           7
           6           1           6           7           8
           7           1           7           8           9
           8           1           8           9          10
           9           1           9          10          11
          10           1          10          11          12
          11           1          11          12          13
          12           1          12          13          14
          13           1          13          14          15
          14           1          14          15          16
          15           1          15          16          17
          16           1          16          17          18
          17           1          17          18          19
          18           1          18          19          20
          19           1          19          20          21
          20           1          20          21          22
          21           1          21          22          23
          22           1          22          23          24
          23           1          23          24          25
          24           1          24          25          26
          25           1          25          26          27
          26           1          26          27          28
          27           1          27          28          29
          28           1          28          29          30
          29           1          29          30          31
          30           1          30          31          32
          31           1          31          32          33
          32           1          32          33          34
          33           1          33          34          35
          34           1          34          35          36
          35           1          37          38          39
          36           1          38          39          40
          37           1          39          40          41
          38           1          40          41          42
          39           1          41          42          43
          40           1          42          43          44
          41           1          43          44          45
          42           1          44          45          46
          43           1          45          46          47
          44           1          46          47          48
          45           1          47          48          49
          46           1          48          49          50
          47           1          49          50          51
          48           1          50          51          52
          49           1          51          52          53
          50           1          52          53          54
          51           1          53          54          55
          52           1          54          55          56
          53           1          55          56          57
          54           1          56          57          58
          55           1          57          58          59
          56           1          58          59          60
          57           1          59          60          61
          58           1          60          61          62
          59           1          61          62          63
          60           1          62          63          64
          61           1          63          64          65
          62           1          64          65          66
          63           1          65          66          67
          64           1          66          67          68
          65           1          67          68          69
          66           1          68          69          70
          67           1          69          70          71
          68           1          70          71          72

 
Dihedrals
 
           1           1           1           2           3           4
           2           1           2           3           4           5
           3           1           3           4           5           6
           4           1           4           5           6           7
           5           1           5           6           7           8
           6           1           6           7           8           9
           7           1           7           8           9          10
           8           1           8           9          10          11
           9           1           9          10          11          12
          10           1          10          11          12          13
          11           1          11          12          13          14
          12           1          12          13          14          15
          13           1          13          14          15          16
          14           1          14          15          16          17
          15           1          15          16          17          18
          16           1          16          17          18          19
          17           1          17          18          19          20
          18           1          18          19          20          21
          19           1          19          20          21          22
          20           1          20          21          22          23
          21           1          21          22          23          24
          22           1          22          23          24          25
          23           1          23          24          25          26
          24           1          24          25          26          27
          25           1          25          26          27          28
          26           1          26          27          28          29
          27           1          27          28          29          30
          28           1          28          29          30          31
          29           1          29          30          31          32
          30           1          30          31          32          33
          31           1          31          32          33          34
          32           1          32          33          34          35
          33           1          33          34          35          36
          34           1          37          38          39          40
          35           1          38          39          40          41
          36           1          39          40          41          42
          37           1          40          41          42          43
          38           1          41          42          43          44
          39           1          42          43          44          45
          40           1          43          44          45          46
          41           1          44          45          46          47
          42           1          45          46          47          48
          43           1          46          47          48          49
          44           1          47          48          49          50
          45           1          48          49          50          51
          46           1          49          50          51          52
          47           1          50          51          52          53
          48           1          51          52          53          54
          49           1          52          53          54          55
          50           1          53          54          55          56
          51           1          54          55          56          57
          52           1          55          56          57          58
          53           1          56          57          58          59
          54           1          57          58          59          60
          55           1          58          59          60          61
          56           1          59          60          61          62
          57           1          60          61          62          63
          58           1          61          62          63          64
          59           1          62          63          64          65
          60           1          63          64          65          66
          61           1          64          65          66          67
          62           1          65          66          67          68
          63           1          66          67          68          69
          64           1          67          68          69          70
          65           1          68          69          70          71
          66           1          69          70          71          72
