LAMMPS UA chain data file
 
         72  atoms
         70  bonds
         68  angles
         66  dihedrals
           0  impropers
 
           3  atom types
           1  bond types
           1  angle types
           1  dihedral types
           0  improper types
 
    -400.000000     400.000000 xlo xhi
    -400.000000     400.000000 ylo yhi
   -0.050000      45.000000 zlo zhi
 
Masses
 
  1   14.00
  2   14.00
  3   14.00
 
Atoms

 1 1 3 -3.1107 -0.241272 -0.00442127 0 0 0
 2 1 3 -3.04677 -0.60574 1.5132 0 0 0
 3 1 3 -3.15576 0.5557 2.46581 0 0 0
 4 1 1 -3.58867 0.0757299 3.80167 0 0 0
 5 1 1 -2.45465 -0.394521 4.73673 0 0 0
 6 1 1 -3.03215 -0.635012 6.1007 0 0 0
 7 1 1 -2.07002 -1.17504 7.12312 0 0 0
 8 1 1 -2.78525 -1.35931 8.4495 0 0 0
 9 1 1 -1.87772 -1.99867 9.58209 0 0 0
 10 1 1 -2.48481 -1.90705 11.0246 0 0 0
 11 1 1 -1.75077 -2.7915 12.0411 0 0 0
 12 1 1 -1.94173 -2.17988 13.4492 0 0 0
 13 1 1 -1.54665 -2.99819 14.6647 0 0 0
 14 1 1 -1.66606 -2.02858 15.8524 0 0 0
 15 1 1 -1.93116 -2.72166 17.2246 0 0 0
 16 1 1 -1.64586 -1.8106 18.4653 0 0 0
 17 1 1 -1.78477 -2.54601 19.8274 0 0 0
 18 1 1 -1.38898 -1.69945 21.0385 0 0 0
 19 1 1 -1.52471 -2.42525 22.3599 0 0 0
 20 1 1 -1.52719 -1.52649 23.6432 0 0 0
 21 1 1 -1.55108 -2.17626 25.0174 0 0 0
 22 1 1 -1.31102 -1.23569 26.2639 0 0 0
 23 1 1 -1.52662 -1.96392 27.6048 0 0 0
 24 1 1 -1.78754 -1.10155 28.8727 0 0 0
 25 1 1 -1.7283 -1.98459 30.1643 0 0 0
 26 1 1 -1.91103 -1.14065 31.5116 0 0 0
 27 1 1 -1.88587 -1.98064 32.748 0 0 0
 28 1 1 -1.97443 -1.2099 34.0615 0 0 0
 29 1 1 -1.76087 -1.94339 35.4132 0 0 0
 30 1 1 -2.452 -1.22913 36.5927 0 0 0
 31 1 1 -2.50913 -1.96421 37.9547 0 0 0
 32 1 1 -3.04839 -1.04157 39.0855 0 0 0
 33 1 1 -2.83539 -1.75743 40.426 0 0 0
 34 1 2 -3.2105 -0.9516 41.6799 0 0 0
 35 1 2 -2.7795 -1.602 42.9777 0 0 0
 36 1 2 -3.1141 -0.6745 44.2171 0 0 0
 37 2 3 1.7893 -0.240928 -0.00442127 0 0 0
 38 2 3 1.13094 -0.287202 1.36231 0 0 0
 39 2 3 1.92821 0.303659 2.54416 0 0 0
 40 2 1 1.34409 -0.0633269 3.91617 0 0 0
 41 2 1 2.13619 0.532072 5.13884 0 0 0
 42 2 1 1.54123 0.0168544 6.47816 0 0 0
 43 2 1 2.2231 0.61921 7.75539 0 0 0
 44 2 1 1.74228 -0.10348 9.039 0 0 0
 45 2 1 2.47805 0.233674 10.41 0 0 0
 46 2 1 2.07777 -0.671218 11.584 0 0 0
 47 2 1 2.90657 -0.389666 12.8843 0 0 0
 48 2 1 2.90671 -1.62321 13.8775 0 0 0
 49 2 1 3.65173 -1.57632 15.2166 0 0 0
 50 2 1 3.69562 -2.9037 15.9416 0 0 0
 51 2 1 4.1996 -2.81372 17.3795 0 0 0
 52 2 1 3.15521 -2.29292 18.3794 0 0 0
 53 2 1 3.90674 -2.01049 19.6896 0 0 0
 54 2 1 3.03935 -1.82234 20.9653 0 0 0
 55 2 1 3.7425 -1.65478 22.3216 0 0 0
 56 2 1 2.82268 -1.57879 23.5518 0 0 0
 57 2 1 3.64315 -1.44922 24.8763 0 0 0
 58 2 1 2.71439 -1.17627 26.0998 0 0 0
 59 2 1 3.56546 -1.37416 27.3684 0 0 0
 60 2 1 2.66145 -0.97616 28.5154 0 0 0
 61 2 1 3.19204 -1.0838 29.9787 0 0 0
 62 2 1 2.27024 -0.706811 31.2075 0 0 0
 63 2 1 2.90061 -1.04579 32.6256 0 0 0
 64 2 1 2.05739 -0.678196 33.8476 0 0 0
 65 2 1 2.35819 -1.31087 35.2151 0 0 0
 66 2 1 1.75662 -0.658035 36.4324 0 0 0
 67 2 1 1.96046 -1.43041 37.722 0 0 0
 68 2 1 1.72696 -0.804716 39.092 0 0 0
 69 2 1 2.21776 -1.53391 40.3506 0 0 0
 70 2 2 1.6895 -0.9516 41.6799 0 0 0
 71 2 2 2.1205 -1.602 42.9777 0 0 0
 72 2 2 1.7859 -0.6745 44.2171 0 0 0

Bonds
 
       1         1         1       2
       2         1         2       3
       3         1         3       4
       4         1         4       5
       5         1         5       6
       6         1         6       7
       7         1         7       8
       8         1         8       9
       9         1         9      10
      10         1        10      11
      11         1        11      12
      12         1        12      13
      13         1        13      14
      14         1        14      15
      15         1        15      16
      16         1        16      17
      17         1        17      18
      18         1        18      19
      19         1        19      20
      20         1        20      21
      21         1        21      22
      22         1        22      23
      23         1        23      24
      24         1        24      25
      25         1        25      26
      26         1        26      27
      27         1        27      28
      28         1        28      29
      29         1        29      30
      30         1        30      31
      31         1        31      32
      32         1        32      33
      33         1        33      34
      34         1        34      35
      35         1        35      36
      36         1        37      38
      37         1        38      39
      38         1        39      40
      39         1        40      41
      40         1        41      42
      41         1        42      43
      42         1        43      44
      43         1        44      45
      44         1        45      46
      45         1        46      47
      46         1        47      48
      47         1        48      49
      48         1        49      50
      49         1        50      51
      50         1        51      52
      51         1        52      53
      52         1        53      54
      53         1        54      55
      54         1        55      56
      55         1        56      57
      56         1        57      58
      57         1        58      59
      58         1        59      60
      59         1        60      61
      60         1        61      62
      61         1        62      63
      62         1        63      64
      63         1        64      65
      64         1        65      66
      65         1        66      67
      66         1        67      68
      67         1        68      69
      68         1        69      70
      69         1        70      71
      70         1        71      72
     

 
Angles
 
           1           1           1           2           3
           2           1           2           3           4
           3           1           3           4           5
           4           1           4           5           6
           5           1           5           6           7
           6           1           6           7           8
           7           1           7           8           9
           8           1           8           9          10
           9           1           9          10          11
          10           1          10          11          12
          11           1          11          12          13
          12           1          12          13          14
          13           1          13          14          15
          14           1          14          15          16
          15           1          15          16          17
          16           1          16          17          18
          17           1          17          18          19
          18           1          18          19          20
          19           1          19          20          21
          20           1          20          21          22
          21           1          21          22          23
          22           1          22          23          24
          23           1          23          24          25
          24           1          24          25          26
          25           1          25          26          27
          26           1          26          27          28
          27           1          27          28          29
          28           1          28          29          30
          29           1          29          30          31
          30           1          30          31          32
          31           1          31          32          33
          32           1          32          33          34
          33           1          33          34          35
          34           1          34          35          36
          35           1          37          38          39
          36           1          38          39          40
          37           1          39          40          41
          38           1          40          41          42
          39           1          41          42          43
          40           1          42          43          44
          41           1          43          44          45
          42           1          44          45          46
          43           1          45          46          47
          44           1          46          47          48
          45           1          47          48          49
          46           1          48          49          50
          47           1          49          50          51
          48           1          50          51          52
          49           1          51          52          53
          50           1          52          53          54
          51           1          53          54          55
          52           1          54          55          56
          53           1          55          56          57
          54           1          56          57          58
          55           1          57          58          59
          56           1          58          59          60
          57           1          59          60          61
          58           1          60          61          62
          59           1          61          62          63
          60           1          62          63          64
          61           1          63          64          65
          62           1          64          65          66
          63           1          65          66          67
          64           1          66          67          68
          65           1          67          68          69
          66           1          68          69          70
          67           1          69          70          71
          68           1          70          71          72

 
Dihedrals
 
           1           1           1           2           3           4
           2           1           2           3           4           5
           3           1           3           4           5           6
           4           1           4           5           6           7
           5           1           5           6           7           8
           6           1           6           7           8           9
           7           1           7           8           9          10
           8           1           8           9          10          11
           9           1           9          10          11          12
          10           1          10          11          12          13
          11           1          11          12          13          14
          12           1          12          13          14          15
          13           1          13          14          15          16
          14           1          14          15          16          17
          15           1          15          16          17          18
          16           1          16          17          18          19
          17           1          17          18          19          20
          18           1          18          19          20          21
          19           1          19          20          21          22
          20           1          20          21          22          23
          21           1          21          22          23          24
          22           1          22          23          24          25
          23           1          23          24          25          26
          24           1          24          25          26          27
          25           1          25          26          27          28
          26           1          26          27          28          29
          27           1          27          28          29          30
          28           1          28          29          30          31
          29           1          29          30          31          32
          30           1          30          31          32          33
          31           1          31          32          33          34
          32           1          32          33          34          35
          33           1          33          34          35          36
          34           1          37          38          39          40
          35           1          38          39          40          41
          36           1          39          40          41          42
          37           1          40          41          42          43
          38           1          41          42          43          44
          39           1          42          43          44          45
          40           1          43          44          45          46
          41           1          44          45          46          47
          42           1          45          46          47          48
          43           1          46          47          48          49
          44           1          47          48          49          50
          45           1          48          49          50          51
          46           1          49          50          51          52
          47           1          50          51          52          53
          48           1          51          52          53          54
          49           1          52          53          54          55
          50           1          53          54          55          56
          51           1          54          55          56          57
          52           1          55          56          57          58
          53           1          56          57          58          59
          54           1          57          58          59          60
          55           1          58          59          60          61
          56           1          59          60          61          62
          57           1          60          61          62          63
          58           1          61          62          63          64
          59           1          62          63          64          65
          60           1          63          64          65          66
          61           1          64          65          66          67
          62           1          65          66          67          68
          63           1          66          67          68          69
          64           1          67          68          69          70
          65           1          68          69          70          71
          66           1          69          70          71          72
