LAMMPS UA chain data file
 
         196  atoms
         194  bonds
         192  angles
         190  dihedrals
           0  impropers
 
           3  atom types
           1  bond types
           1  angle types
           1  dihedral types
           0  improper types
 
    -400.000000     400.000000 xlo xhi
    -400.000000     400.000000 ylo yhi
    -0.050000      124.000000 zlo zhi
 
Masses
 
  1   14.00
  2   14.00
  3   14.00
 
Atoms

 1 1 3 -2.98867 -1.00478 -0.0123858 0 0 0
 2 1 3 -3.24646 -0.0823932 1.20868 0 0 0
 3 1 3 -2.88676 -0.664293 2.59114 0 0 0
 4 1 1 -3.2836 0.264658 3.73802 0 0 0
 5 1 1 -2.70164 -0.110789 5.11746 0 0 0
 6 1 1 -3.04419 0.815414 6.36948 0 0 0
 7 1 1 -2.04751 0.710747 7.51361 0 0 0
 8 1 1 -2.53422 1.30672 8.86535 0 0 0
 9 1 1 -1.73031 1.3662 10.1754 0 0 0
 10 1 1 -2.30226 2.06864 11.469 0 0 0
 11 1 1 -1.64418 1.66576 12.7622 0 0 0
 12 1 1 -2.13465 2.15922 14.1504 0 0 0
 13 1 1 -1.11478 1.95756 15.2777 0 0 0
 14 1 1 -1.56848 2.35421 16.6845 0 0 0
 15 1 1 -0.518905 1.90319 17.7683 0 0 0
 16 1 1 -0.771608 2.32244 19.2699 0 0 0
 17 1 1 0.215589 1.76677 20.3791 0 0 0
 18 1 1 -0.0442449 2.28348 21.8103 0 0 0
 19 1 1 0.596727 1.50265 22.9853 0 0 0
 20 1 1 0.345545 1.93749 24.4714 0 0 0
 21 1 1 1.20553 1.23459 25.505 0 0 0
 22 1 1 0.864674 1.67318 26.9065 0 0 0
 23 1 1 1.51555 0.951823 28.0378 0 0 0
 24 1 1 1.09858 1.54553 29.3916 0 0 0
 25 1 1 1.54921 0.718523 30.6903 0 0 0
 26 1 1 1.03521 1.24788 32.0856 0 0 0
 27 1 1 1.35254 0.245622 33.215 0 0 0
 28 1 1 1.16354 0.748618 34.6632 0 0 0
 29 1 1 1.66291 -0.222468 35.7831 0 0 0
 30 1 1 1.56383 0.437814 37.2449 0 0 0
 31 1 1 1.73336 -0.487536 38.4572 0 0 0
 32 1 1 1.69658 0.132921 39.8519 0 0 0
 33 1 1 1.84674 -0.945841 40.9781 0 0 0
 34 1 1 1.43118 -0.507019 42.421 0 0 0
 35 1 1 1.70245 -1.45037 43.6332 0 0 0
 36 1 1 0.951666 -1.00202 44.9105 0 0 0
 37 1 1 1.228 -1.73733 46.2978 0 0 0
 38 1 1 0.24797 -1.33752 47.4208 0 0 0
 39 1 1 0.386237 -1.95835 48.8391 0 0 0
 40 1 1 -0.810466 -1.68496 49.8629 0 0 0
 41 1 1 -0.419416 -1.88663 51.326 0 0 0
 42 1 1 -1.52099 -1.87131 52.4281 0 0 0
 43 1 1 -1.18383 -2.19617 53.9529 0 0 0
 44 1 1 -2.08629 -1.48472 55.0461 0 0 0
 45 1 1 -1.56953 -1.85011 56.5196 0 0 0
 46 1 1 -2.17937 -0.978789 57.5847 0 0 0
 47 1 1 -1.90388 -1.28647 59.0853 0 0 0
 48 1 1 -2.46422 -0.471416 60.3173 0 0 0
 49 1 1 -1.97864 -0.889688 61.7171 0 0 0
 50 1 1 -2.26363 0.133568 62.8829 0 0 0
 51 1 1 -1.56984 -0.235783 64.2054 0 0 0
 52 1 1 -1.64037 0.940643 65.1959 0 0 0
 53 1 1 -1.0478 0.656826 66.6135 0 0 0
 54 1 1 -1.64635 1.29452 67.8785 0 0 0
 55 1 1 -0.735946 1.15914 69.191 0 0 0
 56 1 1 -1.29667 1.68148 70.5692 0 0 0
 57 1 1 -0.198532 1.84482 71.6177 0 0 0
 58 1 1 -0.731033 2.22867 73.0648 0 0 0
 59 1 1 0.0832818 1.77613 74.3615 0 0 0
 60 1 1 -0.502681 2.09959 75.7713 0 0 0
 61 1 1 0.68334 2.01781 76.77 0 0 0
 62 1 1 0.279176 2.18097 78.3164 0 0 0
 63 1 1 1.37016 2.27958 79.4118 0 0 0
 64 1 1 0.857369 2.29414 80.877 0 0 0
 65 1 1 1.93521 2.20382 81.9717 0 0 0
 66 1 1 1.44437 2.08938 83.4119 0 0 0
 67 1 1 2.41867 1.77398 84.5684 0 0 0
 68 1 1 1.7274 1.46323 85.9304 0 0 0
 69 1 1 2.66941 1.1654 87.0997 0 0 0
 70 1 1 1.88311 0.851936 88.3848 0 0 0
 71 1 1 2.60327 0.59176 89.6696 0 0 0
 72 1 1 1.74921 -0.0723406 90.8437 0 0 0
 73 1 1 2.51848 -0.249493 92.1983 0 0 0
 74 1 1 1.62866 -0.564013 93.3978 0 0 0
 75 1 1 2.35176 -0.787195 94.7625 0 0 0
 76 1 1 1.55885 -0.779805 96.0777 0 0 0
 77 1 1 2.31412 -1.47471 97.29 0 0 0
 78 1 1 1.47052 -1.34155 98.5816 0 0 0
 79 1 1 2.07758 -2.00509 99.87 0 0 0
 80 1 1 1.07332 -1.84437 101.061 0 0 0
 81 1 1 1.54529 -2.4919 102.391 0 0 0
 82 1 1 0.522179 -2.211 103.574 0 0 0
 83 1 1 1.04227 -2.55343 104.978 0 0 0
 84 1 1 0.0198006 -2.10615 106.075 0 0 0
 85 1 1 0.452272 -2.38017 107.587 0 0 0
 86 1 1 -0.301614 -1.47138 108.534 0 0 0
 87 1 1 0.0983175 -1.69709 110.009 0 0 0
 88 1 1 -1.04172 -1.15469 110.867 0 0 0
 89 1 1 -0.66321 -1.42981 112.331 0 0 0
 90 1 1 -1.37087 -0.678784 113.407 0 0 0
 91 1 1 -0.925284 -1.06757 114.852 0 0 0
 92 1 1 -1.69393 -0.358777 116 0 0 0
 93 1 1 -0.932035 -0.486942 117.292 0 0 0
 94 1 1 -1.61733 0.0630658 118.58 0 0 0
 95 1 1 -0.785383 0.0212382 119.919 0 0 0
 96 1 2 -1.4379 0.4302 121.245 0 0 0
 97 1 2 -1.3844 -0.678 122.297 0 0 0
 98 1 2 -1.7147 -0.2091 123.87 0 0 0
 99 2 3 1.66727 0.522575 -0.0123858 0 0 0
 100 2 3 1.95688 -0.289211 1.3299 0 0 0
 101 2 3 1.73781 0.396082 2.70169 0 0 0
 102 2 1 1.72458 -0.607306 3.91235 0 0 0
 103 2 1 2.1677 -0.181377 5.37573 0 0 0
 104 2 1 1.64807 -0.995665 6.60018 0 0 0
 105 2 1 2.12484 -0.761873 8.0167 0 0 0
 106 2 1 1.54212 -1.6773 9.13588 0 0 0
 107 2 1 1.8643 -1.2462 10.6113 0 0 0
 108 2 1 1.14577 -1.98535 11.784 0 0 0
 109 2 1 1.04112 -1.12356 13.109 0 0 0
 110 2 1 0.280194 -1.83584 14.2587 0 0 0
 111 2 1 0.469244 -1.38328 15.7368 0 0 0
 112 2 1 -0.487529 -2.02396 16.8255 0 0 0
 113 2 1 0.125639 -1.73023 18.2508 0 0 0
 114 2 1 -0.737827 -2.20335 19.4355 0 0 0
 115 2 1 -0.178881 -1.98342 20.8587 0 0 0
 116 2 1 -1.12378 -2.14766 22.045 0 0 0
 117 2 1 -0.401087 -2.12656 23.3955 0 0 0
 118 2 1 -1.44155 -2.34359 24.5759 0 0 0
 119 2 1 -0.862548 -2.47589 26.0409 0 0 0
 120 2 1 -1.81189 -2.17992 27.2361 0 0 0
 121 2 1 -1.24229 -1.67358 28.5946 0 0 0
 122 2 1 -2.29267 -1.73521 29.7613 0 0 0
 123 2 1 -1.65827 -1.22568 31.1288 0 0 0
 124 2 1 -2.37532 -1.55975 32.429 0 0 0
 125 2 1 -2.02849 -0.665068 33.6273 0 0 0
 126 2 1 -2.53423 -1.0519 35.096 0 0 0
 127 2 1 -2.4032 -0.022506 36.2204 0 0 0
 128 2 1 -2.68692 -0.417138 37.6813 0 0 0
 129 2 1 -2.11992 0.670806 38.6865 0 0 0
 130 2 1 -2.37787 0.241039 40.1945 0 0 0
 131 2 1 -2.01958 1.34397 41.2577 0 0 0
 132 2 1 -2.12212 0.968037 42.7668 0 0 0
 133 2 1 -1.83011 2.14054 43.7748 0 0 0
 134 2 1 -1.72886 1.60303 45.2197 0 0 0
 135 2 1 -1.05666 2.55 46.2498 0 0 0
 136 2 1 -1.31513 2.04659 47.6496 0 0 0
 137 2 1 -0.403058 2.60487 48.7896 0 0 0
 138 2 1 -0.64361 2.07025 50.1747 0 0 0
 139 2 1 0.227047 2.69217 51.3352 0 0 0
 140 2 1 -0.0540186 2.16973 52.7867 0 0 0
 141 2 1 1.04052 2.43027 53.8914 0 0 0
 142 2 1 0.827077 1.56865 55.1546 0 0 0
 143 2 1 1.84321 1.80412 56.2295 0 0 0
 144 2 1 1.51496 1.19657 57.6271 0 0 0
 145 2 1 2.47335 1.47812 58.8139 0 0 0
 146 2 1 1.98174 0.667535 60.0565 0 0 0
 147 2 1 2.87003 0.332381 61.287 0 0 0
 148 2 1 2.12121 0.0223647 62.5714 0 0 0
 149 2 1 3.03331 -0.192398 63.8599 0 0 0
 150 2 1 2.2032 -0.400858 65.1518 0 0 0
 151 2 1 2.93332 -0.528884 66.506 0 0 0
 152 2 1 2.12209 -1.42798 67.5125 0 0 0
 153 2 1 2.49792 -1.23493 68.9926 0 0 0
 154 2 1 1.6166 -1.80969 70.1408 0 0 0
 155 2 1 2.09519 -1.57359 71.6243 0 0 0
 156 2 1 1.02802 -2.12118 72.5717 0 0 0
 157 2 1 1.25041 -1.83166 74.1092 0 0 0
 158 2 1 0.292461 -2.49544 75.1162 0 0 0
 159 2 1 0.535919 -2.05389 76.5829 0 0 0
 160 2 1 -0.525717 -2.31171 77.7145 0 0 0
 161 2 1 -0.0537829 -2.01279 79.1372 0 0 0
 162 2 1 -1.03133 -2.20134 80.2923 0 0 0
 163 2 1 -0.418757 -1.96999 81.6831 0 0 0
 164 2 1 -1.21372 -2.20262 82.9516 0 0 0
 165 2 1 -0.675974 -1.52046 84.2247 0 0 0
 166 2 1 -1.47114 -1.74581 85.5195 0 0 0
 167 2 1 -1.39092 -0.66713 86.6245 0 0 0
 168 2 1 -1.69921 -1.09967 88.0992 0 0 0
 169 2 1 -1.61756 0.00829866 89.2017 0 0 0
 170 2 1 -2.03872 -0.292455 90.6693 0 0 0
 171 2 1 -1.46587 0.679107 91.7791 0 0 0
 172 2 1 -2.08797 0.51183 93.2333 0 0 0
 173 2 1 -1.61219 1.49009 94.3066 0 0 0
 174 2 1 -2.04411 1.21103 95.6992 0 0 0
 175 2 1 -1.15882 1.87879 96.8302 0 0 0
 176 2 1 -1.58578 1.52946 98.3096 0 0 0
 177 2 1 -0.500381 1.89659 99.4186 0 0 0
 178 2 1 -0.954548 1.79023 100.908 0 0 0
 179 2 1 0.173776 1.80304 102.015 0 0 0
 180 2 1 -0.412207 1.61125 103.453 0 0 0
 181 2 1 0.608062 2.01904 104.54 0 0 0
 182 2 1 0.228656 1.69064 106.022 0 0 0
 183 2 1 1.47729 1.71215 106.945 0 0 0
 184 2 1 1.08369 1.84848 108.431 0 0 0
 185 2 1 2.16595 1.70383 109.515 0 0 0
 186 2 1 1.69471 1.78834 110.971 0 0 0
 187 2 1 2.72081 1.56846 112.087 0 0 0
 188 2 1 2.13167 1.54283 113.519 0 0 0
 189 2 1 2.91915 0.827164 114.656 0 0 0
 190 2 1 2.60113 1.04244 116.137 0 0 0
 191 2 1 3.45378 0.471827 117.239 0 0 0
 192 2 1 3.1883 0.898654 118.672 0 0 0
 193 2 1 3.75127 -0.075142 119.788 0 0 0
 194 2 2 3.4621 0.4302 121.245 0 0 0
 195 2 2 3.5156 -0.678 122.297 0 0 0
 196 2 2 3.1853 -0.2091 123.87 0 0 0

Bonds
 
       1         1         1       2
       2         1         2       3
       3         1         3       4
       4         1         4       5
       5         1         5       6
       6         1         6       7
       7         1         7       8
       8         1         8       9
       9         1         9      10
      10         1        10      11
      11         1        11      12
      12         1        12      13
      13         1        13      14
      14         1        14      15
      15         1        15      16
      16         1        16      17
      17         1        17      18
      18         1        18      19
      19         1        19      20
      20         1        20      21
      21         1        21      22
      22         1        22      23
      23         1        23      24
      24         1        24      25
      25         1        25      26
      26         1        26      27
      27         1        27      28
      28         1        28      29
      29         1        29      30
      30         1        30      31
      31         1        31      32
      32         1        32      33
      33         1        33      34
      34         1        34      35
      35         1        35      36
      36         1        36      37
      37         1        37      38
      38         1        38      39
      39         1        39      40
      40         1        40      41
      41         1        41      42
      42         1        42      43
      43         1        43      44
      44         1        44      45
      45         1        45      46
      46         1        46      47
      47         1        47      48
      48         1        48      49
      49         1        49      50
      50         1        50      51
      51         1        51      52
      52         1        52      53
      53         1        53      54
      54         1        54      55
      55         1        55      56
      56         1        56      57
      57         1        57      58
      58         1        58      59
      59         1        59      60
      60         1        60      61
      61         1        61      62
      62         1        62      63
      63         1        63      64
      64         1        64      65
      65         1        65      66
      66         1        66      67
      67         1        67      68
      68         1        68      69
      69         1        69      70
      70         1        70      71
      71         1        71      72
      72         1        72      73
      73         1        73      74
      74         1        74      75
      75         1        75      76
      76         1        76      77
      77         1        77      78
      78         1        78      79
      79         1        79      80
      80         1        80      81
      81         1        81      82
      82         1        82      83
      83         1        83      84
      84         1        84      85
      85         1        85      86
      86         1        86      87
      87         1        87      88
      88         1        88      89
      89         1        89      90
      90         1        90      91
      91         1        91      92
      92         1        92      93
      93         1        93      94
      94         1        94      95
      95         1        95      96
      96         1        96      97
      97         1        97      98
      98         1        99     100
      99         1       100     101
     100         1       101     102
     101         1       102     103
     102         1       103     104
     103         1       104     105
     104         1       105     106
     105         1       106     107
     106         1       107     108
     107         1       108     109
     108         1       109     110
     109         1       110     111
     110         1       111     112
     111         1       112     113
     112         1       113     114
     113         1       114     115
     114         1       115     116
     115         1       116     117
     116         1       117     118
     117         1       118     119
     118         1       119     120
     119         1       120     121
     120         1       121     122
     121         1       122     123
     122         1       123     124
     123         1       124     125
     124         1       125     126
     125         1       126     127
     126         1       127     128
     127         1       128     129
     128         1       129     130
     129         1       130     131
     130         1       131     132
     131         1       132     133
     132         1       133     134
     133         1       134     135
     134         1       135     136
     135         1       136     137
     136         1       137     138
     137         1       138     139
     138         1       139     140
     139         1       140     141
     140         1       141     142
     141         1       142     143
     142         1       143     144
     143         1       144     145
     144         1       145     146
     145         1       146     147
     146         1       147     148
     147         1       148     149
     148         1       149     150
     149         1       150     151
     150         1       151     152
     151         1       152     153
     152         1       153     154
     153         1       154     155
     154         1       155     156
     155         1       156     157
     156         1       157     158
     157         1       158     159
     158         1       159     160
     159         1       160     161
     160         1       161     162
     161         1       162     163
     162         1       163     164
     163         1       164     165
     164         1       165     166
     165         1       166     167
     166         1       167     168
     167         1       168     169
     168         1       169     170
     169         1       170     171
     170         1       171     172
     171         1       172     173
     172         1       173     174
     173         1       174     175
     174         1       175     176
     175         1       176     177
     176         1       177     178
     177         1       178     179
     178         1       179     180
     179         1       180     181
     180         1       181     182
     181         1       182     183
     182         1       183     184
     183         1       184     185
     184         1       185     186
     185         1       186     187
     186         1       187     188
     187         1       188     189
     188         1       189     190
     189         1       190     191
     190         1       191     192
     191         1       192     193
     192         1       193     194
     193         1       194     195
     194         1       195     196
 
Angles
 
           1           1           1           2           3
           2           1           2           3           4
           3           1           3           4           5
           4           1           4           5           6
           5           1           5           6           7
           6           1           6           7           8
           7           1           7           8           9
           8           1           8           9          10
           9           1           9          10          11
          10           1          10          11          12
          11           1          11          12          13
          12           1          12          13          14
          13           1          13          14          15
          14           1          14          15          16
          15           1          15          16          17
          16           1          16          17          18
          17           1          17          18          19
          18           1          18          19          20
          19           1          19          20          21
          20           1          20          21          22
          21           1          21          22          23
          22           1          22          23          24
          23           1          23          24          25
          24           1          24          25          26
          25           1          25          26          27
          26           1          26          27          28
          27           1          27          28          29
          28           1          28          29          30
          29           1          29          30          31
          30           1          30          31          32
          31           1          31          32          33
          32           1          32          33          34
          33           1          33          34          35
          34           1          34          35          36
          35           1          35          36          37
          36           1          36          37          38
          37           1          37          38          39
          38           1          38          39          40
          39           1          39          40          41
          40           1          40          41          42
          41           1          41          42          43
          42           1          42          43          44
          43           1          43          44          45
          44           1          44          45          46
          45           1          45          46          47
          46           1          46          47          48
          47           1          47          48          49
          48           1          48          49          50
          49           1          49          50          51
          50           1          50          51          52
          51           1          51          52          53
          52           1          52          53          54
          53           1          53          54          55
          54           1          54          55          56
          55           1          55          56          57
          56           1          56          57          58
          57           1          57          58          59
          58           1          58          59          60
          59           1          59          60          61
          60           1          60          61          62
          61           1          61          62          63
          62           1          62          63          64
          63           1          63          64          65
          64           1          64          65          66
          65           1          65          66          67
          66           1          66          67          68
          67           1          67          68          69
          68           1          68          69          70
          69           1          69          70          71
          70           1          70          71          72
          71           1          71          72          73
          72           1          72          73          74
          73           1          73          74          75
          74           1          74          75          76
          75           1          75          76          77
          76           1          76          77          78
          77           1          77          78          79
          78           1          78          79          80
          79           1          79          80          81
          80           1          80          81          82
          81           1          81          82          83
          82           1          82          83          84
          83           1          83          84          85
          84           1          84          85          86
          85           1          85          86          87
          86           1          86          87          88
          87           1          87          88          89
          88           1          88          89          90
          89           1          89          90          91
          90           1          90          91          92
          91           1          91          92          93
          92           1          92          93          94
          93           1          93          94          95
          94           1          94          95          96
          95           1          95          96          97
          96           1          96          97          98
          97           1          99         100         101
          98           1         100         101         102
          99           1         101         102         103
         100           1         102         103         104
         101           1         103         104         105
         102           1         104         105         106
         103           1         105         106         107
         104           1         106         107         108
         105           1         107         108         109
         106           1         108         109         110
         107           1         109         110         111
         108           1         110         111         112
         109           1         111         112         113
         110           1         112         113         114
         111           1         113         114         115
         112           1         114         115         116
         113           1         115         116         117
         114           1         116         117         118
         115           1         117         118         119
         116           1         118         119         120
         117           1         119         120         121
         118           1         120         121         122
         119           1         121         122         123
         120           1         122         123         124
         121           1         123         124         125
         122           1         124         125         126
         123           1         125         126         127
         124           1         126         127         128
         125           1         127         128         129
         126           1         128         129         130
         127           1         129         130         131
         128           1         130         131         132
         129           1         131         132         133
         130           1         132         133         134
         131           1         133         134         135
         132           1         134         135         136
         133           1         135         136         137
         134           1         136         137         138
         135           1         137         138         139
         136           1         138         139         140
         137           1         139         140         141
         138           1         140         141         142
         139           1         141         142         143
         140           1         142         143         144
         141           1         143         144         145
         142           1         144         145         146
         143           1         145         146         147
         144           1         146         147         148
         145           1         147         148         149
         146           1         148         149         150
         147           1         149         150         151
         148           1         150         151         152
         149           1         151         152         153
         150           1         152         153         154
         151           1         153         154         155
         152           1         154         155         156
         153           1         155         156         157
         154           1         156         157         158
         155           1         157         158         159
         156           1         158         159         160
         157           1         159         160         161
         158           1         160         161         162
         159           1         161         162         163
         160           1         162         163         164
         161           1         163         164         165
         162           1         164         165         166
         163           1         165         166         167
         164           1         166         167         168
         165           1         167         168         169
         166           1         168         169         170
         167           1         169         170         171
         168           1         170         171         172
         169           1         171         172         173
         170           1         172         173         174
         171           1         173         174         175
         172           1         174         175         176
         173           1         175         176         177
         174           1         176         177         178
         175           1         177         178         179
         176           1         178         179         180
         177           1         179         180         181
         178           1         180         181         182
         179           1         181         182         183
         180           1         182         183         184
         181           1         183         184         185
         182           1         184         185         186
         183           1         185         186         187
         184           1         186         187         188
         185           1         187         188         189
         186           1         188         189         190
         187           1         189         190         191
         188           1         190         191         192
         189           1         191         192         193
         190           1         192         193         194
         191           1         193         194         195
         192           1         194         195         196
 
Dihedrals
 
           1           1           1           2           3           4
           2           1           2           3           4           5
           3           1           3           4           5           6
           4           1           4           5           6           7
           5           1           5           6           7           8
           6           1           6           7           8           9
           7           1           7           8           9          10
           8           1           8           9          10          11
           9           1           9          10          11          12
          10           1          10          11          12          13
          11           1          11          12          13          14
          12           1          12          13          14          15
          13           1          13          14          15          16
          14           1          14          15          16          17
          15           1          15          16          17          18
          16           1          16          17          18          19
          17           1          17          18          19          20
          18           1          18          19          20          21
          19           1          19          20          21          22
          20           1          20          21          22          23
          21           1          21          22          23          24
          22           1          22          23          24          25
          23           1          23          24          25          26
          24           1          24          25          26          27
          25           1          25          26          27          28
          26           1          26          27          28          29
          27           1          27          28          29          30
          28           1          28          29          30          31
          29           1          29          30          31          32
          30           1          30          31          32          33
          31           1          31          32          33          34
          32           1          32          33          34          35
          33           1          33          34          35          36
          34           1          34          35          36          37
          35           1          35          36          37          38
          36           1          36          37          38          39
          37           1          37          38          39          40
          38           1          38          39          40          41