LAMMPS (16 Mar 2018)
# 1. INITIALIZATION
#allows pair, bond, bending and dihedral interactions
atom_style molecular

  # periodic (video game) boundaries in all cartesian directions
boundary p p s

  # uses real units (instead of units based on pair potential parameters).  List of units used in manual
units real

###########
# 2. ATOM DEFINITION
##########

   ##
   # Read in data from starting configuration file
   ##

#read_data chainconfig.dat

 #use to restart
read_restart RESTART
  orthogonal box = (-400 -400 -0.0371672) to (400 400 123.895)
  1 by 1 by 1 MPI processor grid
  196 atoms
  194 bonds
  192 angles
  190 dihedrals
  2 = max # of 1-2 neighbors
  2 = max # of 1-3 neighbors
  4 = max # of 1-4 neighbors
  6 = max # of special neighbors

   ##
   # Specify the nature of the bond interactions
   ##


bond_style harmonic
bond_coeff 1 450 1.54

special_bonds lj 0.0 0.0 0.0 angle no dihedral no

angle_style harmonic
angle_coeff 1 62.1  114.00

dihedral_style opls
dihedral_coeff * 1.4110 -0.2708 3.143 0.0

mass * 14.0

pair_style lj/cut 14.0
pair_coeff 1 1 0.0912 3.95 14.0
#pair_modify tail yes

group twistables type 3
6 atoms in group twistables
group freeze type 2
6 atoms in group freeze
fix startend freeze setforce 0.0 0.0 0.0
fix startend0 twistables setforce 0.0 0.0 0.0

################
# 3.  Simulation Settings
###############

neighbor        2.0 bin
neigh_modify    every 1 delay 0 check yes



# Define some variables
variable Lx          equal xhi-xlo   # Ang
variable Ly          equal yhi-ylo   # Ang
variable Lz          equal zhi-zlo   # Ang

variable dz          equal ${Lz}/30  # Ang
variable dz          equal 123.931948666893/30  

variable zzlo        equal zlo+0.05  # Ang
variable zzhi        equal zhi  # Ang
variable vol         equal ${Lx}*${Ly}*${Lz}  # Ang^3
variable vol         equal 800*${Ly}*${Lz}  
variable vol         equal 800*800*${Lz}  
variable vol         equal 800*800*123.931948666893  
variable TEMP        equal 300.00 # K
variable TThi        equal 320.00 # K
variable TTlo        equal 280.00 # K
variable dt          equal 1.25 # fs

timestep     ${dt}
timestep     1.25

variable zlo1      equal ${zzlo}+2.7
variable zlo1      equal 0.0128327665533126+2.7
variable zlo2      equal ${zzlo}+8.4
variable zlo2      equal 0.0128327665533126+8.4
variable zhi1      equal ${zzlo}+115.5
variable zhi1      equal 0.0128327665533126+115.5
variable zhi2      equal ${zzlo}+121
variable zhi2      equal 0.0128327665533126+121

# heat layers

region          hot  block  INF INF INF INF ${zlo1} ${zlo2}
region          hot  block  INF INF INF INF 2.71283276655331 ${zlo2}
region          hot  block  INF INF INF INF 2.71283276655331 8.41283276655331
region          cold block INF INF INF INF ${zhi1} ${zhi2}
region          cold block INF INF INF INF 115.512832766553 ${zhi2}
region          cold block INF INF INF INF 115.512832766553 121.012832766553
compute         Thot all temp/region hot
compute         Tcold all temp/region cold


# 1st equilibration run
fix             1 all nvt temp ${TEMP} ${TEMP} 50
fix             1 all nvt temp 300 ${TEMP} 50
fix             1 all nvt temp 300 300 50
thermo          100
run             8000
Unused restart file peratom fix info:
  fix style: STORE, fix ID: layers_COMPUTE_STORE
Neighbor list info ...
  update every 1 steps, delay 0 steps, check yes
  max neighbors/atom: 2000, page size: 100000
  master list distance cutoff = 16
  ghost atom cutoff = 16
  binsize = 8, bins = 100 100 16
  1 neighbor lists, perpetual/occasional/extra = 1 0 0
  (1) pair lj/cut, perpetual
      attributes: half, newton on
      pair build: half/bin/newton
      stencil: half/bin/3d/newton
      bin: standard
Per MPI rank memory allocation (min/avg/max) = 9.689 | 9.689 | 9.689 Mbytes
Step Temp E_pair E_mol TotEng Press Volume 
134452000    292.98074   -49.781508    192.12758    312.64346  -0.99427725     79316447 
134452100    322.13144   -53.700978    213.53064    347.07113   -1.0506128     79316447 
134452200    309.73532   -55.588452    216.61612    341.06379    -1.059076     79316447 
134452300    327.28702   -48.586382    219.73192    361.38372  -0.95540265     79316447 
134452400    276.56245   -51.876892    219.14377    328.02101  -0.95192022     79316447 
134452500    314.27243    -55.39857    205.68003    332.95481   -1.0357121     79316447 
134452600    304.17788   -53.876356    217.35091    340.28037   -1.0646611     79316447 
134452700    299.17954   -51.298868    199.30406    321.90568  -0.89340238     79316447 
134452800    312.25165   -50.586723    221.95386    352.86589  -0.96882508     79316447 
134452900     269.0507   -55.730338    208.34139    308.99891    -1.058425     79316447 
134453000    284.90202   -53.454215     206.7442    318.89155  -0.96211648     79316447 
134453100    300.73956   -52.321917      216.373    338.85835   -0.9902994     79316447 
134453200    281.40008   -54.457857    226.89573    336.00392    -1.061539     79316447 
134453300    287.48783   -52.475737    186.91123    301.54008  -0.99283112     79316447 
134453400    295.43624   -49.416029    216.51492    338.82356  -0.97995895     79316447 
134453500    288.71233   -55.369238    215.90313    328.35024   -0.9986092     79316447 
134453600    303.34049   -52.382918    211.03925    334.97541  -0.99257534     79316447 
134453700    311.98775   -50.931188    221.72674    352.14092   -1.0394014     79316447 
134453800    300.91845   -55.934478    196.69412    315.67089  -0.99402237     79316447 
134453900    292.22024   -53.208999    212.94962    329.59597   -1.0601188     79316447 
134454000     318.7579   -46.877539    191.27291    329.67594   -0.8245005     79316447 
134454100     273.6085   -53.600187    210.21238    315.64931   -1.1791906     79316447 
134454200     297.9003   -51.570748    234.22484    355.81102   -1.0469844     79316447 
134454300    274.51869   -54.267422    223.23737    328.53612  -0.92395229     79316447 
134454400    286.79539   -52.389063    211.61102    325.92406   -1.0867322     79316447 
134454500    309.53483   -54.190391    236.63781    362.36701   -1.0318292     79316447 
134454600    307.17931   -51.474344    223.53199    350.60807   -1.1325907     79316447 
134454700    257.67472   -52.610227    226.79606    323.96132   -1.0100149     79316447 
134454800    298.87701   -51.690206    221.02921    343.06365    -0.947789     79316447 
134454900    287.21584   -53.589136     212.3306    325.68795   -1.0845189     79316447 
134455000     337.1164   -54.179285    211.08439     352.8567  -0.96360845     79316447 
134455100    308.90374   -54.288851    210.27562    335.53953   -1.0811942     79316447 
134455200    334.28655   -49.632596    191.73965    336.41377  -0.84592121     79316447 
134455300    252.07626   -53.748622    215.58814    308.36085   -1.1481377     79316447 
134455400    318.64056    -53.72338     210.2885    341.77748   -1.0105505     79316447 
134455500    273.79251   -49.154379    220.12757    330.11726  -0.93159973     79316447 
134455600    315.35425   -53.616253    229.56719    359.25311   -1.1600031     79316447 
134455700     295.2292   -54.571862    208.59236    325.62482  -0.86455878     79316447 
134455800    318.47606   -49.752123    212.00987     347.3745   -1.0376934     79316447 
134455900    280.35497   -54.325507    208.43722    317.07027    -1.071308     79316447 
134456000    288.78042   -52.103681    223.08101    338.83325   -1.0289799     79316447 
134456100    304.22753   -48.866086    223.61781     351.5864    -1.022374     79316447 
134456200     283.7916   -53.612214    208.45083    319.79474   -0.8971318     79316447 
134456300    329.55527   -53.955785    216.84021    354.44105   -1.1258923     79316447 
134456400     297.3369   -51.213518    231.40241    353.01832  -0.99728745     79316447 
134456500    287.53188   -55.727548    206.97989    318.38254   -1.0309062     79316447 
134456600    337.69112   -52.044602    206.63652    350.87756   -1.0366935     79316447 
134456700    282.65627   -53.411318    202.28736    313.17224  -0.89423208     79316447 
134456800    266.75341   -55.057788    220.41862    320.41338   -1.1767361     79316447 
134456900    295.56427   -52.782687    198.95038    317.96678  -0.83426536     79316447 
134457000    329.30236   -52.886193     215.8502    354.37363   -1.0133301     79316447 
134457100    287.88375   -54.357916    205.99824    318.97504   -1.0856141     79316447 
134457200    296.96984   -52.141631    224.82966    345.30411  -0.79212437     79316447 
134457300    281.15419   -49.157382    222.55063    336.81635   -1.1726168     79316447 
134457400      314.555   -56.497117    213.88802    340.22851  -0.88966562     79316447 
134457500     301.6755   -51.874089     211.7932    335.27039   -1.0080331     79316447 
134457600    300.26012   -53.254193    207.03731     328.3117   -1.0588459     79316447 
134457700    317.64269   -53.784608    222.38647     353.2342   -0.9760807     79316447 
134457800    287.62054   -53.248544    197.72457    311.65776  -0.99951922     79316447 
134457900    312.34194   -53.420133    207.76931    335.90042   -1.0083183     79316447 
134458000    262.05995   -52.330158    228.40429    328.39856    -1.057777     79316447 
134458100    280.52859   -53.529084    201.30193    310.83232  -0.92136937     79316447 
134458200     289.9082   -50.071543    222.54597    340.98587   -0.9966319     79316447 
134458300    295.60061   -51.946709    219.09209    338.96559   -1.0275079     79316447 
134458400    304.00057   -53.141601    223.10194    346.66309   -1.0730739     79316447 
134458500    325.75718   -54.118922    214.54852    349.77855   -1.0128004     79316447 
134458600    291.87214   -53.597898    215.37762    331.43272  -0.89751002     79316447 
134458700    238.24317     -52.1033    218.88719    305.26463   -1.0696313     79316447 
134458800    345.69787   -53.452544    200.70277    348.18986  -0.87240174     79316447 
134458900    271.69585   -52.042581    216.00867    321.89146   -1.0584925     79316447 
134459000    291.68996   -55.989744    240.31251    353.86988   -1.1785909     79316447 
134459100    299.49654   -50.118409    200.78365    324.74999  -0.81444475     79316447 
134459200    318.81059   -54.954087    227.37941    357.73651   -1.1022648     79316447 
134459300    279.26539   -54.533976    228.57661    336.36786   -1.0016056     79316447 
134459400    314.13785    -50.79024    202.79475    334.59964   -1.0054287     79316447 
134459500     302.7199    -52.06428    223.36156    347.25564  -0.97448756     79316447 
134459600    305.96009   -56.188954    217.65452    339.30731   -1.0102442     79316447 
134459700    290.70709   -51.439639    212.79512    330.33129     -1.04172     79316447 
134459800    290.69486   -53.001047    219.82792    335.79558  -0.86346207     79316447 
134459900    275.67642   -53.915651     214.0071    320.33057   -1.0579764     79316447 
134460000    311.02821   -51.128056    221.47598    351.13555  -0.95818077     79316447 
Loop time of 1.12831 on 1 procs for 8000 steps with 196 atoms

Performance: 765.744 ns/day, 0.031 hours/ns, 7090.219 timesteps/s
99.8% CPU use with 1 MPI tasks x no OpenMP threads

MPI task timing breakdown:
Section |  min time  |  avg time  |  max time  |%varavg| %total
---------------------------------------------------------------
Pair    | 0.39562    | 0.39562    | 0.39562    |   0.0 | 35.06
Bond    | 0.67046    | 0.67046    | 0.67046    |   0.0 | 59.42
Neigh   | 0.016391   | 0.016391   | 0.016391   |   0.0 |  1.45
Comm    | 0.0022004  | 0.0022004  | 0.0022004  |   0.0 |  0.20
Output  | 0.00056362 | 0.00056362 | 0.00056362 |   0.0 |  0.05
Modify  | 0.035784   | 0.035784   | 0.035784   |   0.0 |  3.17
Other   |            | 0.007301   |            |       |  0.65

Nlocal:    196 ave 196 max 196 min
Histogram: 1 0 0 0 0 0 0 0 0 0
Nghost:    0 ave 0 max 0 min
Histogram: 1 0 0 0 0 0 0 0 0 0
Neighs:    3895 ave 3895 max 3895 min
Histogram: 1 0 0 0 0 0 0 0 0 0

Total # of neighbors = 3895
Ave neighs/atom = 19.8724
Ave special neighs/atom = 5.87755
Neighbor list builds = 77
Dangerous builds = 0
velocity        all scale ${TEMP}
velocity        all scale 300
unfix           1

# Second Equilibration
fix             1 all nve
fix             hot all langevin ${TThi} ${TThi}  50.0 599804  tally yes
fix             hot all langevin 320 ${TThi}  50.0 599804  tally yes
fix             hot all langevin 320 320  50.0 599804  tally yes
fix             cold all langevin ${TTlo} ${TTlo} 50.0 27859 tally yes
fix             cold all langevin 280 ${TTlo} 50.0 27859 tally yes
fix             cold all langevin 280 280 50.0 27859 tally yes
fix_modify      hot temp Thot
fix_modify      cold temp Tcold


variable        tdiff equal c_Thot-c_Tcold
thermo_style    custom step c_Thot c_Tcold f_hot f_cold v_tdiff
thermo          4000
run             1600000
Per MPI rank memory allocation (min/avg/max) = 10.44 | 10.44 | 10.44 Mbytes
Step c_Thot c_Tcold f_hot f_cold v_tdiff 
134460000    298.43442    250.01207           -0           -0    48.422348 
134464000    356.67396    236.12903   -18.810868    36.467477    120.54493 
134468000    454.33312    336.96405   -27.362585    64.782542    117.36907 
134472000    283.43679    422.02524   -85.529461    96.844625   -138.58845 
134476000    196.32065     279.6771   -74.510198    92.196021   -83.356452 
134480000    321.38475    295.87182   -100.39918    118.82033     25.51293 
134484000    402.88728    285.43661   -75.155925    126.13859    117.45067 
134488000    324.73749    328.05671   -133.44041    138.87376   -3.3192225 
134492000    361.99583    237.59863   -165.16312    169.17971     124.3972 
134496000    337.21885    312.23964   -163.45117    189.69346    24.979205 
134500000    330.98814    320.74079   -190.12355    202.41043    10.247352 
134504000    304.79581    429.68605   -198.16209    246.87815   -124.89023 
134508000    136.57843    342.71037   -236.48473    260.04261   -206.13194 
134512000    434.69767    297.01858    -261.3018    295.37588    137.67909 
134516000    386.89919    341.41103   -277.69705    293.22742    45.488161 
134520000    319.50274    347.42172   -283.47336    299.06315   -27.918988 
134524000    319.13491    237.56108   -315.71444    327.07754    81.573836 
134528000    319.20929    288.95338   -311.59092    350.83344    30.255918 
134532000    482.45689    301.28246   -332.42347    367.20393    181.17443 
134536000    205.89551     282.1867   -355.60376    397.92607   -76.291189 
134540000    553.67748    367.50194   -389.13291    414.13411    186.17554 
134544000    504.36545     201.0857   -395.23751    430.23486    303.27975 
134548000    315.45246    265.63174   -438.17926    446.16256    49.820723 
134552000    465.41673    349.84976   -434.69855    462.31097    115.56696 
134556000    270.29254    433.77139   -451.86629    461.22112   -163.47885 
134560000    250.23356    269.87951   -443.65008    469.20382    -19.64595 
134564000    526.77723    342.12276   -453.62159    472.99031    184.65447 
134568000    291.44876     351.2209   -477.86208    483.40048   -59.772142 
134572000     159.3367    508.21605   -483.80655    517.80494   -348.87935 
134576000    294.31254    221.79985   -525.52601    562.04394    72.512691 
134580000    335.60936    305.17133   -541.34049    587.49644    30.438025 
134584000    355.19116     307.8543   -567.58841     625.1339    47.336859 
134588000    423.59468    312.90804   -614.82467    644.36168    110.68664 
134592000    263.59303     175.5067   -661.11328    688.38474    88.086329 
134596000    359.13196    279.88712   -697.76503    708.82116    79.244834 
134600000    281.93767    325.08785   -721.81579    744.83771   -43.150178 
134604000    335.68996     348.7786   -727.51991    762.90688   -13.088633 
134608000    276.58836    303.54328   -757.78738    767.40775   -26.954922 
134612000    293.91367    163.02434   -774.49213    825.32422    130.88933 
134616000    196.13647    247.36902   -773.62582    790.33627   -51.232549 
134620000    524.84742     378.6639   -791.04615    819.09991    146.18352 
134624000    137.94027    244.38809   -796.24525    844.68685   -106.44783 
134628000    417.00465    344.85083   -813.49639    843.15595    72.153818 
134632000    154.06506    329.03428   -828.26144     853.6933   -174.96922 
134636000    323.48154    451.59177   -858.45579    885.32233   -128.11024 
134640000    353.72415     440.9498    -879.6078    896.91738   -87.225649 
134644000    369.08415     343.7054   -908.16946    928.07423    25.378744 
134648000    260.82971    335.90302   -921.65046    940.37593    -75.07331 
134652000    302.87867    299.49029   -956.13463    968.67369    3.3883797 
134656000    320.23536    126.59275   -991.06149    998.48339    193.64261 
134660000    464.30151    410.47082   -1004.5633    1030.7066    53.830683 
134664000    291.21099    273.64543   -1044.3245    1068.6027    17.565563 
134668000    437.71666    211.98288   -1089.6921    1106.5569    225.73378 
134672000    318.13183    378.50941   -1109.8369    1152.7314   -60.377577 
134676000    375.70864    221.85749   -1129.0385     1146.752    153.85115 
134680000    224.72991    308.79809   -1119.4339    1157.5392   -84.068182 
134684000    445.93407    328.77436    -1130.089    1184.6224    117.15971 
134688000    150.45319    533.19848   -1167.5982     1192.683   -382.74529 
134692000    519.21889     472.3813   -1187.3993    1205.9936    46.837589 
134696000    458.20215    316.98366   -1199.4071    1216.1739    141.21849 
134700000    409.50794    345.19231   -1227.1928     1245.787    64.315633 
134704000    293.37854     335.2731    -1250.483    1273.8016   -41.894556 
134708000    253.49785    337.48071   -1281.1081    1292.5433    -83.98286 
134712000    282.01978    389.01732   -1287.5865    1304.1185   -106.99754 
134716000    371.55976    157.05119   -1310.9271    1327.4684    214.50857 
134720000      336.281     167.7016   -1318.2601    1352.7795     168.5794 
134724000    302.88479    261.68093   -1336.5474    1388.9424    41.203864 
134728000    442.79231    455.01398   -1372.8046    1386.3018   -12.221665 
134732000    274.04546    251.14587   -1422.2247    1429.1558     22.89959 
134736000    365.88508    172.08522   -1434.9062    1457.4946    193.79986 
134740000    387.80291    246.31837   -1455.3294    1485.7048    141.48454 
134744000    369.18132     347.2346   -1493.1368     1530.398    21.946726 
134748000    451.52275    298.87449   -1490.1036    1508.8976    152.64827 
134752000    356.37743    343.07071   -1507.4278    1541.2832    13.306724 
134756000     212.0053    270.73018   -1567.9055    1569.9495   -58.724877 
134760000    318.32582    273.53836   -1571.7766    1603.2065     44.78746 
134764000    452.62676    244.47676   -1618.4445    1635.2844    208.14999 
134768000    408.07388    176.79334   -1627.3018    1670.2257    231.28054 
134772000     298.6883    341.82044   -1639.5803    1655.2822   -43.132133 
134776000    171.37862     361.3679   -1659.5715    1685.8819   -189.98928 
134780000    245.38467    580.51093   -1666.2883    1697.9536   -335.12626 
134784000    370.16648    251.91482     -1736.27    1757.5046    118.25166 
134788000     362.5322     338.4978   -1759.1247    1789.6505    24.034406 
134792000    344.72737    266.88779   -1805.5517    1842.7451    77.839582 
134796000    253.10646    261.21371   -1821.6016    1862.3939   -8.1072535 
134800000    131.06673    425.74093   -1860.9263    1881.6755   -294.67419 
134804000    335.53195    323.94948   -1890.9617     1911.511    11.582472 
134808000    399.91751    281.74585   -1916.7894     1964.224    118.17167 
134812000    471.33482    356.08592   -1931.4362    1962.7467     115.2489 
134816000    294.37589    246.93463   -1969.6919    1986.5921    47.441256 
134820000    365.06061    208.09371   -2006.7226    2019.3208     156.9669 
134824000    373.51721    429.38844   -2029.5559     2032.492   -55.871228 
134828000    242.92056    390.86028   -2022.7263    2052.8495   -147.93973 
134832000    321.43284    234.57749   -2046.0693     2089.187    86.855353 
134836000     385.6688    413.14807   -2089.9559     2127.341   -27.479268 
134840000    470.77307    271.45639   -2112.0337    2143.3973    199.31668 
134844000    518.94751    175.29192   -2116.7121    2145.2301    343.65559 
134848000    414.27797    247.92819    -2126.193    2162.7292    166.34978 
134852000    396.43534    266.27743   -2141.1091    2187.3461    130.15792 
134856000    313.30903    265.18879   -2159.6963    2208.7487    48.120235 
134860000    452.27762    370.69429   -2199.0049    2244.3363    81.583323 
134864000    344.01404    277.30011   -2223.2075    2248.7103    66.713932 
134868000    365.60638    358.81775    -2240.753    2271.2221    6.7886304 
134872000    481.30327    391.96576   -2268.6276    2294.1816    89.337508 
134876000    224.20679    390.60096   -2273.2883    2317.0022   -166.39417 
134880000    306.75363    204.11893   -2307.4624    2345.9143     102.6347 
134884000    357.08589    400.44257   -2294.4019    2328.2952   -43.356679 
134888000    265.64752    265.83027   -2307.1336    2328.2807   -0.1827547 
134892000    226.63962    358.19478   -2319.7574    2349.4524   -131.55515 
134896000    273.29912    412.44193   -2361.8753    2364.6122   -139.14281 
134900000    404.80035    323.10154   -2366.3948    2391.5941    81.698812 
134904000    418.56495    371.36097   -2383.9975    2429.7112    47.203981 
134908000    469.40016    356.19341   -2415.2322    2438.2894    113.20675 
134912000    387.56215    278.89591    -2406.962    2455.6854    108.66624 
134916000    351.42712    214.23052   -2451.0606    2476.4647     137.1966 
134920000    246.12929    373.23029   -2506.8326    2500.8566     -127.101 
134924000    334.79274    433.71023   -2504.2445    2539.0293    -98.91749 
134928000    427.97544    360.96387   -2511.7526    2545.4944    67.011565 
134932000    466.42275    352.10695   -2535.1019    2568.4431     114.3158 
134936000    194.11856    317.73034   -2582.0877    2596.2955   -123.61177 
134940000    305.72407    246.53109   -2599.3208    2614.9413    59.192983 
134944000    420.06353    549.36659   -2604.9108    2620.1654   -129.30306 
134948000    335.14277    426.19568   -2625.9147    2648.0688   -91.052913 
134952000    442.21322    348.71118   -2633.8771    2649.4302    93.502043 
134956000    344.40834    367.92657   -2686.5219    2699.7233   -23.518229 
134960000    236.54943    407.40208   -2681.4834    2729.7448   -170.85265 
134964000    156.83023    427.36443   -2714.5604    2741.8757   -270.53421 
134968000    285.84772    187.45459   -2743.1365    2742.2776     98.39313 
134972000    461.17605    360.33929   -2767.9869      2780.94    100.83676 
134976000    362.36275    391.71627   -2769.0392    2801.3131    -29.35352 
134980000    366.77261    259.06464   -2788.8618    2813.6659    107.70797 
134984000     437.1511    349.69065   -2810.7551    2829.0014    87.460449 
134988000    303.96508    166.53239   -2858.0373    2877.8425    137.43269 
134992000    351.35255    315.18464   -2859.6175    2904.5569    36.167914 
134996000     327.4475    305.65221   -2878.4696    2907.6096    21.795292 
135000000    307.13011    408.59265    -2892.152    2917.6324   -101.46253 
135004000    631.18807      426.009    -2936.618    2958.5871    205.17906 
135008000    310.35558    406.52746   -2968.8802    2979.8025   -96.171881 
135012000    265.39281    302.98415   -2982.0073    3008.8209   -37.591338 
135016000    607.01858    291.48325   -3008.6672     3050.693    315.53534 
135020000    479.91201     319.9481    -3028.533     3016.579    159.96391 
135024000    485.18155    343.94076   -3043.5108    3056.3204    141.24079 
135028000    263.97973    295.21221   -3087.8885    3111.2502   -31.232475 
135032000    444.35447    359.14521   -3133.3076    3156.6757    85.209262 
135036000    340.11469    285.61196   -3149.9735    3189.6271    54.502728 
135040000    227.13792      464.184   -3198.8757    3205.0876   -237.04608 
135044000    224.35843    296.74819   -3213.0801    3230.4083   -72.389755 
135048000    214.00295    347.37176   -3208.9474    3237.1863   -133.36881 
135052000    371.44955    333.03424    -3231.594    3275.7026    38.415314 
135056000    511.73336    286.30077   -3241.9571    3273.9901    225.43259 
135060000    193.94151    253.95493   -3265.2473    3305.3258   -60.013419 
135064000    367.30283    360.44946   -3267.8624    3308.6138     6.853371 
135068000    421.27957    293.71223   -3286.5009    3302.2833    127.56734 
135072000    296.69254    345.27445   -3307.2508    3324.3502    -48.58191 
135076000    424.33186    325.71118   -3361.6429    3380.1547    98.620675 
135080000     301.4604    284.33249    -3358.851    3416.8842    17.127914 
135084000    648.80567    457.92657   -3396.7442    3428.1752     190.8791 
135088000    473.31716    423.72141   -3428.9355    3446.4034     49.59575 
135092000    345.78626    397.53511   -3436.8578      3446.44   -51.748852 
135096000    220.14532    196.82456   -3435.7982    3478.7562    23.320764 
135100000    469.87615     403.6777   -3483.3654    3480.0174    66.198453 
135104000     368.5371    462.46787   -3515.3587    3528.7008   -93.930768 
135108000    324.65852    362.82526   -3548.4617    3557.1591   -38.166736 
135112000    310.19302    389.47117   -3534.5378    3564.7458   -79.278144 
135116000    279.47227    270.11686   -3562.2501    3592.3365    9.3554123 
135120000     321.3126     356.5672   -3560.8021    3591.2088   -35.254609 
135124000    397.84405    386.75713   -3593.8242    3607.3424    11.086919 
135128000    291.12579    295.42367   -3619.2029    3648.4261    -4.297888 
135132000    238.83786     360.8233   -3631.3872    3659.3613   -121.98544 
135136000    377.92845    297.16232   -3656.5157    3665.8845    80.766133 
135140000    231.20246    238.76343    -3650.023    3686.4646   -7.5609728 
135144000    268.88069    456.12106    -3681.778    3701.8445   -187.24037 
135148000    293.63378    253.08304   -3699.0859    3728.1741    40.550744 
135152000    573.49949    212.00304   -3705.8892    3742.4841    361.49645 
135156000    533.52187    243.16271   -3729.4651    3765.6057    290.35916 
135160000    244.07115    251.18903    -3762.361     3797.528   -7.1178801 
135164000    315.45754    299.70765   -3779.9366    3798.7525    15.749894 
135168000    327.53251    356.14403   -3819.1132    3850.0125   -28.611521 
135172000    507.10068    305.25299   -3840.2214    3871.3859    201.84768 
135176000    279.10252    242.61763   -3853.9915    3894.8447    36.484889 
135180000    431.09962    406.26847   -3889.1308      3896.57     24.83115 
135184000    337.78004    314.00566   -3912.8887    3928.3104    23.774376 
135188000    227.41414     255.6996   -3914.7014    3932.3081   -28.285468 
135192000    241.51132    345.24152     -3928.66    3959.4387    -103.7302 
135196000      527.005    358.06111   -3948.9839    3986.1726    168.94389 
135200000    307.05757    200.73487   -3960.6985    4010.2915    106.32269 
135204000    224.52526    344.76872   -4000.6015    4012.2304   -120.24345 
135208000    355.72957    296.41208   -4022.8769    4059.3251    59.317487 
135212000    206.58845    345.97715   -4053.0451    4083.6281    -139.3887 
135216000    323.39074    464.90177   -4046.9694    4088.5162   -141.51103 
135220000    341.94843    390.11924   -4071.8046    4105.5878   -48.170816 
135224000    191.26047    315.31193   -4101.6642    4135.6974   -124.05146 
135228000     313.1625    213.64317   -4103.4773    4144.9378    99.519332 
135232000    450.46408    215.78212    -4148.763    4188.4281    234.68196 
135236000    270.49349    412.70961   -4182.8789    4220.8501   -142.21613 
135240000     303.3437    237.35302   -4221.9009    4226.1098    65.990685 
135244000    314.99691    189.14749   -4227.6095    4267.2959    125.84943 
135248000     560.5451    331.17386   -4253.6199    4281.9192    229.37124 
135252000    511.76936    355.40782   -4268.7428    4289.4357    156.36154 
135256000    275.72813    374.71136   -4301.9936    4328.8189   -98.983234 
135260000    450.94333    405.11575   -4339.9018    4357.1884    45.827581 
135264000    239.96061    485.80611   -4355.9357    4383.5535   -245.84549 
135268000    309.98502    341.84876   -4385.5507    4426.8531   -31.863736 
135272000      310.951    392.89202   -4417.2061    4435.7136   -81.941018 
135276000    319.55943    247.03136   -4429.9198    4453.5325    72.528078 
135280000    396.48606    223.48366   -4443.5123    4480.0591     173.0024 
135284000    303.44775    216.64021   -4477.3007     4498.614    86.807542 
135288000    167.53822     338.5763   -4479.1502    4500.8824   -171.03808 
135292000    419.27446    319.19723   -4501.3701    4530.3622    100.07723 
135296000    353.80207    279.63909   -4521.7533    4559.3351    74.162979 
135300000    536.28495    268.20483   -4563.1532    4582.1252    268.08012 
135304000    356.83182    371.71512   -4594.3717    4609.6564   -14.883299 
135308000    504.34167    226.46952   -4627.5877    4663.5708    277.87215 
135312000    487.41006    331.43111   -4673.0406    4692.2907    155.97894 
135316000    391.35047    374.37773   -4683.8955    4727.5712    16.972734 
135320000    198.89788    378.73651   -4707.3598    4739.0003   -179.83863 
135324000    501.72753    189.15238   -4738.7027    4777.7738    312.57516 
135328000    257.95631    192.74953   -4783.5528    4830.6826    65.206777 
135332000    391.32855    451.38504   -4814.3883    4847.4324   -60.056493 
135336000    478.48316    260.27942   -4838.4331    4878.3386    218.20374 
135340000    355.97521    341.81592   -4877.4065    4896.9281    14.159296 
135344000    588.76042    296.11224   -4908.4153    4933.4662    292.64818 
135348000    472.30133    266.15036    -4947.941    4972.4841    206.15097 
135352000    432.34985    344.34784   -4981.9123    5008.3793    88.002007 
135356000    311.49378    246.54296    -5001.414    5037.9045    64.950818 
135360000    264.92013    259.56659    -5024.131     5029.501    5.3535334 
135364000    397.37117    301.03294    -5026.041    5051.5291    96.338228 
135368000    449.60963    293.47627   -5037.2532    5087.8475    156.13336 
135372000    332.01971    381.83233   -5085.1455    5104.3602   -49.812619 
135376000    451.93919    298.37929   -5125.6245    5143.5933     153.5599 
135380000    526.81864    201.10939   -5155.7398      5165.65    325.70925 
135384000    297.90796    251.05722   -5176.6216    5202.5756    46.850744 
135388000    497.78003    384.83171   -5181.4512    5210.1801    112.94832 
135392000    255.95898    303.22707   -5212.1258     5249.801   -47.268081 
135396000    361.55493    278.22296   -5241.2883    5258.8005    83.331967 
135400000     332.0748    282.68851   -5235.4572    5259.7983    49.386293 
135404000    475.53841    383.34912   -5240.1158    5260.1552    92.189293 
135408000    316.07969    284.73093   -5252.2238    5259.0043    31.348759 
135412000    323.92327    270.38416   -5246.9935    5282.4234    53.539104 
135416000    484.00622    325.07312   -5281.7488    5330.1094     158.9331 
135420000     400.2609    387.96685    -5333.382    5354.5303    12.294053 
135424000    774.85946    259.87713   -5359.9874    5405.0188    514.98232 
135428000    351.00174    382.05968   -5387.0177    5413.8203   -31.057938 
135432000    199.67975    296.18168   -5403.3501    5424.0943   -96.501925 
135436000    550.68238    347.57473   -5427.5447    5444.2327    203.10765 
135440000    326.48529    248.01508   -5427.4657    5459.3383    78.470207 
135444000    381.91557    320.91699   -5456.2495    5499.4363    60.998578 
135448000    206.50393    279.96572   -5469.6008    5517.8978    -73.46179 
135452000    439.10391    302.33627   -5507.9197    5533.2928    136.76764 
135456000     460.6079    166.36358   -5551.7405    5566.4975    294.24432 
135460000    257.62134    311.64595   -5549.6124    5596.6662   -54.024602 
135464000    450.30572    251.65792     -5577.85    5590.4457     198.6478 
135468000     259.8395    513.37919   -5648.6551    5672.0501   -253.53969 
135472000    281.25007    262.47131   -5669.8951    5694.2724    18.778765 
135476000    258.75788    281.15661    -5690.979    5717.3403   -22.398725 
135480000    410.89853    318.25761   -5707.2338    5734.0481    92.640921 
135484000    306.05479    361.61143   -5761.8889    5748.7033   -55.556645 
135488000    243.61047    531.97503   -5742.7424    5751.2525   -288.36456 
135492000    305.23044    262.99375    -5725.717     5770.553    42.236683 
135496000    358.58783    198.78999   -5730.5079    5770.3569    159.79784 
135500000    574.63522    276.93639   -5764.6585    5792.5774    297.69883 
135504000    358.64454    346.96199   -5787.7859     5793.064    11.682556 
135508000    335.91982    621.65733   -5776.0564    5803.1487   -285.73751 
135512000    380.82118    509.89273   -5800.7422    5817.4652   -129.07154 
135516000    222.06752    362.68211   -5773.9144    5826.8475    -140.6146 
135520000    274.50301    244.70876   -5792.4744    5845.7792    29.794244 
135524000    377.69807     554.9443   -5811.1664    5856.9656   -177.24623 
135528000    263.23806    199.08623   -5871.7124    5895.5012    64.151827 
135532000    161.20525    355.96927   -5901.0421    5925.0749   -194.76403 
135536000    311.33116    372.89831   -5902.2729    5934.8822   -61.567148 
135540000     555.6584    216.56943   -5934.1609    5962.9549    339.08896 
135544000    405.70383    333.53097   -5939.8959    5987.3197    72.172864 
135548000    324.86422    252.57661   -5955.3928    5989.0048    72.287614 
135552000     296.3651    574.12284   -5967.7376    5983.2853   -277.75774 
135556000     321.6302    408.53971   -6004.1741    6023.0688   -86.909513 
135560000    348.16354    419.99408   -6027.2247    6025.7417   -71.830544 
135564000    350.97585    366.27199   -6022.2699    6052.9603   -15.296143 
135568000    294.25196    332.53241   -6051.2639    6079.7946   -38.280453 
135572000    214.22337    291.74182   -6042.9023    6080.3769   -77.518447 
135576000    171.66881    388.89306   -6059.4743    6072.5641   -217.22424 
135580000    372.57092    183.74994   -6064.7708    6113.8901    188.82098 
135584000    437.21997    175.14546   -6114.6885    6121.0793    262.07451 
135588000    343.61331    315.39508   -6111.8128    6134.7204    28.218231 
135592000    200.70216    256.38658   -6146.0549    6178.4077   -55.684412 
135596000    216.97515     282.2374   -6159.1546    6182.4289   -65.262257 
135600000    270.73494    375.91013    -6181.297    6196.8358   -105.17519 
135604000    407.15144    351.50622   -6200.5568    6229.1256    55.645218 
135608000    402.81348    556.06888   -6234.9256    6248.1938    -153.2554 
135612000    334.78604    360.09619   -6263.9559    6279.0118   -25.310156 
135616000    329.19523    275.17283   -6271.6218    6312.0447    54.022404 
135620000    496.45565    203.79577   -6303.6652    6329.5851    292.65988 
135624000    207.62918    272.74212   -6299.0916    6333.7929   -65.112938 
135628000    263.92631    270.53668   -6336.7736    6359.0907   -6.6103686 
135632000     356.3804    499.98137   -6354.9683    6357.6947   -143.60097 
135636000    309.58716    521.56633   -6365.5502    6390.5953   -211.97917 
135640000    301.75044    397.36405   -6359.1694    6376.4611   -95.613614 
135644000    764.10582    214.62574   -6396.1619    6412.3933    549.48008 
135648000    164.45524    259.57683   -6435.0463    6467.1519   -95.121583 
135652000    244.26285    313.89652    -6470.668    6494.7103    -69.63367 
135656000    297.96872    500.07908   -6507.3738    6521.0094   -202.11036 
135660000    326.98062    225.53289   -6549.1552     6567.818    101.44773 
135664000    279.23097    176.06118   -6580.7152    6607.1227    103.16979 
135668000    489.91096    259.39726   -6583.9866    6608.3563     230.5137 
135672000     286.0746    318.61402   -6612.3784    6638.1122   -32.539425 
135676000    558.64634    290.96903   -6601.3433    6641.4208    267.67731 
135680000    425.77184    505.28986   -6633.2565    6660.0999   -79.518026 
135684000    871.51665    343.30848   -6688.5966    6706.4713    528.20817 
135688000    523.64581    152.16905   -6714.2633    6740.2162    371.47676 
135692000    365.79416    461.67583   -6758.0917    6774.8284   -95.881673 
135696000    395.71047    393.83225   -6754.4702    6790.0053    1.8782233 
135700000    163.26635     284.0915   -6767.0465    6792.4146   -120.82515 
135704000    399.23237    230.09375   -6771.5524    6818.5645    169.13861 
135708000    483.05253    423.94237   -6796.0696    6814.9504    59.110163 
135712000    500.15869    267.43434   -6827.3637    6828.0055    232.72436 
135716000    618.38124    377.50336   -6832.1826    6850.8265    240.87787 
135720000    420.53721    320.57892   -6847.2773    6861.4451    99.958291 
135724000     326.5155    391.53519   -6845.8225    6882.1739   -65.019686 
135728000    376.09887    180.02963   -6847.6959     6885.561    196.06924 
135732000    292.41494    323.88082   -6887.4626    6919.7797   -31.465873 
135736000    302.61204    275.41658   -6910.1836    6941.0294    27.195455 
135740000    416.24587    231.83484   -6969.7544    6995.1683    184.41104 
135744000    386.20916    391.80086   -6979.0753    7017.1075   -5.5917035 
135748000    511.93047    308.97147   -7005.9493    7023.8668      202.959 
135752000    356.06553    218.58064   -6995.4848    7020.5965    137.48489 
135756000     454.0477    348.29259   -6995.2661    7030.1318    105.75511 
135760000    107.90538    264.31049   -7028.6441    7050.9442   -156.40512 
135764000    331.76973    462.06392   -7045.3294    7076.1377   -130.29419 
135768000    317.98221      389.648   -7077.8574    7082.3373   -71.665785 
135772000    204.02484    207.49947   -7089.8807     7122.091   -3.4746283 
135776000     401.6904    468.67955   -7101.8613    7137.1753   -66.989142 
135780000     295.0169    289.03202    -7168.173     7173.841    5.9848703 
135784000    295.21104    364.80962   -7175.7598    7213.9123   -69.598583 
135788000    417.68628    377.24519   -7200.8533    7234.5849    40.441095 
135792000    389.18795    305.17505   -7226.1197    7277.0047      84.0129 
135796000    481.38436    522.18525   -7236.8428    7265.2209    -40.80089 
135800000    530.09442    265.29795   -7273.2157    7291.2694    264.79647 
135804000    503.53804    177.58381    -7282.524    7335.6868    325.95423 
135808000    288.88666    403.51457   -7308.0982    7347.7434   -114.62791 
135812000    419.19795    275.93327   -7351.4892    7384.8435    143.26468 
135816000    221.45601    469.60383    -7359.749     7383.606   -248.14782 
135820000    473.62249    311.13732   -7384.8218    7398.2984    162.48517 
135824000    323.15778    413.70247   -7388.2966    7437.4257   -90.544684 
135828000    213.54531    391.84588    -7402.067     7438.791   -178.30058 
135832000    301.87867    427.87232   -7438.0982     7439.912   -125.99366 
135836000    271.98987     481.8146   -7445.2356    7478.2002   -209.82473 
135840000     350.5482    157.15514   -7466.6412    7493.5933    193.39306 
135844000     372.4735    240.27868   -7489.2805     7529.184    132.19482 
135848000    290.12828    190.32379    -7537.537    7546.9694    99.804492 
135852000    328.77438    359.31212   -7535.5446    7550.1772   -30.537741 
135856000    427.07927    341.37692   -7543.6106    7571.6839    85.702356 
135860000    519.22324    370.13142   -7582.0784      7615.17    149.09182 
135864000    409.40518    438.66147   -7624.2364    7640.3445    -29.25629 
135868000    499.48957    302.75358   -7607.7532    7656.0416      196.736 
135872000     328.8327    401.03363   -7639.4139    7665.4131   -72.200931 
135876000    322.32217    263.30353   -7666.1417     7702.153    59.018638 
135880000    331.90758    202.46655   -7692.9322    7715.7006    129.44103 
135884000    214.26608    183.57968   -7736.2949    7716.4142    30.686403 
135888000    331.69255    365.72302    -7753.348    7776.4722   -34.030466 
135892000    429.32932     243.0853   -7751.4753    7778.5573    186.24402 
135896000    260.96051    317.29254   -7777.4736    7812.3074    -56.33203 
135900000    304.82532     392.6742   -7835.5411    7835.8668   -87.848887 
135904000    252.25908      205.907   -7840.2208    7863.6801    46.352083 
135908000    294.38935    265.64306   -7835.3609    7887.5274    28.746287 
135912000    451.92312     286.6179   -7873.4124    7906.9939    165.30522 
135916000    286.13045     281.2282   -7867.3739    7893.4079    4.9022417 
135920000    432.62365    211.79806   -7908.1752     7939.326    220.82559 
135924000    269.24325     268.0256   -7932.9478    7970.8097    1.2176536 
135928000    336.44428    385.74139   -7968.1447    7999.1391   -49.297113 
135932000    288.67713    281.67178   -8020.3628    8043.4352    7.0053445 
135936000    333.84765    380.17853   -8067.9366    8103.8562   -46.330887 
135940000    310.08578    270.71007   -8075.0332    8102.8206    39.375713 
135944000    380.34303    359.14648   -8079.6817    8120.2509    21.196552 
135948000     482.2617    349.23501   -8090.5788    8136.4136    133.02669 
135952000    319.50322    441.64301   -8109.1325    8147.0534   -122.13979 
135956000    296.68244    294.80783   -8158.3007    8197.6896    1.8746117 
135960000    435.73864    311.35473   -8196.4456    8221.2581    124.38391 
135964000     493.1559    363.56789   -8210.9576    8252.7894    129.58801 
135968000    273.81854    276.57146   -8231.3611    8266.0361   -2.7529181 
135972000    234.48346     346.1743   -8251.8634    8286.1049   -111.69084 
135976000    318.68247    377.17751   -8261.3845    8299.3997   -58.495038 
135980000    413.57078    427.22996   -8284.9564    8298.5849   -13.659182 
135984000     412.5279    113.89455   -8298.3988    8331.1059    298.63335 
135988000    248.53794     381.2193   -8320.1916    8369.0817   -132.68136 
135992000    525.84068    297.68019   -8332.6387    8372.6962    228.16049 
135996000     395.1989    546.51689    -8357.218    8377.1825   -151.31799 
136000000    483.46772    380.99166   -8348.1807    8378.8948    102.47607 
136004000    346.54009    379.12488   -8369.1773    8374.2533   -32.584791 
136008000    234.33919    330.74669   -8381.4053    8413.7135   -96.407498 
136012000    329.07305    235.09585   -8402.8984    8454.3312    93.977197 
136016000    339.56993    400.95996   -8431.5551    8453.8752   -61.390032 
136020000    641.46392    222.63807    -8451.633    8464.1328    418.82585 
136024000    296.84839     467.2906   -8440.9716    8491.3196   -170.44221 
136028000    370.58059    325.70487   -8470.6315    8497.1895     44.87572 
136032000    480.58423    413.40696   -8485.1471     8514.518    67.177276 
136036000    321.20208    260.99899   -8496.4555    8541.7144    60.203094 
136040000    306.51531     429.1512   -8527.2723    8560.6811   -122.63589 
136044000    494.65904    320.27458   -8549.9258    8564.1738    174.38446 
136048000    321.99699    336.81683   -8575.6817    8547.1573    -14.81984 
136052000    385.52752    384.39563   -8566.7429    8577.6909    1.1318957 
136056000    240.19337    260.55741   -8566.6605    8592.8935   -20.364036 
136060000    263.71013    244.11053   -8565.3828    8603.4604    19.599604 
Loop time of 269.24 on 1 procs for 1600000 steps with 196 atoms

Performance: 641.806 ns/day, 0.037 hours/ns, 5942.650 timesteps/s
99.9% CPU use with 1 MPI tasks x no OpenMP threads

MPI task timing breakdown:
Section |  min time  |  avg time  |  max time  |%varavg| %total
---------------------------------------------------------------
Pair    | 79.666     | 79.666     | 79.666     |   0.0 | 29.59
Bond    | 134.31     | 134.31     | 134.31     |   0.0 | 49.88
Neigh   | 3.3082     | 3.3082     | 3.3082     |   0.0 |  1.23
Comm    | 0.47468    | 0.47468    | 0.47468    |   0.0 |  0.18
Output  | 0.0043502  | 0.0043502  | 0.0043502  |   0.0 |  0.00
Modify  | 49.977     | 49.977     | 49.977     |   0.0 | 18.56
Other   |            | 1.499      |            |       |  0.56

Nlocal:    196 ave 196 max 196 min
Histogram: 1 0 0 0 0 0 0 0 0 0
Nghost:    0 ave 0 max 0 min
Histogram: 1 0 0 0 0 0 0 0 0 0
Neighs:    3885 ave 3885 max 3885 min
Histogram: 1 0 0 0 0 0 0 0 0 0

Total # of neighbors = 3885
Ave neighs/atom = 19.8214
Ave special neighs/atom = 5.87755
Neighbor list builds = 15626
Dangerous builds = 0
unfix 1


# PRODUCTION

fix             1 all nve
fix             hot all langevin ${TThi} ${TThi}  50.0 52804  tally yes
fix             hot all langevin 320 ${TThi}  50.0 52804  tally yes
fix             hot all langevin 320 320  50.0 52804  tally yes
fix             cold all langevin ${TTlo} ${TTlo} 50.0 297859 tally yes
fix             cold all langevin 280 ${TTlo} 50.0 297859 tally yes
fix             cold all langevin 280 280 50.0 297859 tally yes
fix_modify      hot temp Thot
fix_modify      cold temp Tcold


variable        tdiff equal c_Thot-c_Tcold
thermo          4000

dump gigo all atom 40000 dump.cords_xyz.dat
dump_modify gigo scale no
dump vfgigo all custom 4000 dump.velo.dat id vx vy vz fx fy fz

# thermal conductivity calculation
# # reset langevin thermostats to zero energy accumulation
#
compute         ke all ke/atom
variable        temp atom c_ke/1.5/0.0019872

fix             ave all ave/time 100 40 4000 v_tdiff ave running
thermo_style    custom step temp c_Thot c_Tcold f_hot f_cold v_tdiff f_ave

#compute         layers all chunk/atom bin/1d z lower 0.05 units reduced
compute         layers all chunk/atom bin/1d z lower ${dz} units box
compute         layers all chunk/atom bin/1d z lower 4.1310649555631 units box
fix             2 all ave/chunk  100 40 4000 layers v_temp file profile.langevin

dump mydump2 all xyz 40000 prod-coord.xyz
dump_modify mydump2 element C S S

run             32000000
Per MPI rank memory allocation (min/avg/max) = 11.82 | 11.82 | 11.82 Mbytes
Step Temp c_Thot c_Tcold f_hot f_cold v_tdiff f_ave 
136060000    282.87368    263.71013    244.11053           -0           -0    19.599604            0 
136064000    248.18923     432.0469    178.35436   -21.773372    18.130001    253.69254    115.84369 
136068000    296.06292     275.8084    467.60293   -56.019087     40.96117   -191.79454    68.930458 
136072000    299.70222    498.71212      217.469   -76.514822    54.201669    281.24312    55.125056 
136076000    289.07551    479.93584    339.26197   -84.075874    81.028318    140.67387    55.880262 
136080000    280.40064    366.02014    252.91006   -114.24386    108.27849    113.11009    53.424625 
136084000    289.61632    324.47878     412.6956   -164.73779    153.25836   -88.216824    48.574581 
136088000    293.42874    698.03096    271.42694   -191.66831    178.96497    426.60402    52.621157 
136092000    300.76817      298.685    428.76311   -227.71428    202.50446   -130.07811    48.809932 
136096000    275.18305    490.33252    251.34831   -194.65745    212.98725    238.98421    46.762285 
136100000    271.64343    544.45686    258.54028   -212.52332    224.37548    285.91658       49.235 
136104000    306.13034    275.86621     416.8168   -237.26058    226.80157   -140.95058    51.281929 
136108000     271.2613    363.02816    266.59176   -251.97902    241.83085    96.436398    48.604504 
136112000    302.59661    277.44043    448.64378   -261.54496    248.22686   -171.20334    45.926005 
136116000    273.73795    288.32601    370.64396   -278.42456    265.19188   -82.317948    42.824551 
136120000    257.53459    245.55691    284.79047   -298.00153    312.53642   -39.233566    43.591296 
136124000    291.93095    267.07778    404.32504   -336.10485    327.24488   -137.24726    43.479452 
136128000    301.08194    473.10768    418.96182   -362.00551    358.98666    54.145866    41.360333 
136132000    280.30414    406.08705     302.3251   -378.59783    376.35562    103.76195    41.381484 
136136000    266.74289    469.88453    338.65774   -410.33308    409.92997    131.22678    41.045072 
136140000    277.28922    333.64363    438.54575   -425.85635    429.65391   -104.90212    40.326468 
136144000    262.84587    406.08836    304.39681   -434.14051    442.04818    101.69155    40.866394 
136148000     270.9824    345.26204    228.35841   -451.96576    465.63943    116.90363    40.887296 
136152000    285.10047    249.98993    436.09574   -451.67121    437.58159   -186.10581    41.343895 
136156000    258.83255     310.6749     209.6648   -462.02974    457.64041    101.01009    41.041727 
136160000    289.83073    370.39622    244.77917   -484.92227    477.43586    125.61705    42.245702 
136164000    287.47638    337.85849    293.03408   -494.99025    499.23605    44.824415    42.222729 
136168000    296.30624      510.742    193.57562   -568.73431    541.38826    317.16638    42.650437 
136172000    287.31293    359.93362    322.38304   -553.12085    546.47288    37.550576    42.164135 
136176000    268.72092    358.74671    493.26991   -577.31984    577.91076    -134.5232    42.424576 
136180000    247.57924    339.45533    251.73796   -569.63325     583.3071    87.717377    43.033168 
136184000    292.38848    447.80383    388.59821   -597.11153    597.32824     59.20562    42.895908 
136188000    276.03989    427.04161    236.76723   -619.34689    616.50296    190.27437    42.650225 
136192000    331.48881     619.0607    282.03206   -631.24506    617.88679    337.02863    42.095372 
136196000    259.86683    286.69992    194.19068   -634.08195    636.39879    92.509233    42.551209 
136200000    316.43273    235.68448    338.36442   -694.00842    661.38267   -102.67993    42.965637 
136204000    264.47933    416.04081    237.40048   -719.24221    719.12316    178.64033    42.986799 
136208000    247.12203    200.48017    217.66339   -744.89037    744.55562   -17.183214    41.738209 
136212000    300.11148      563.878    341.28735   -769.82729    764.38222    222.59066    41.968516 
136216000    260.83053    141.91613    82.001972   -755.10429    781.27664    59.914156    41.126783 
136220000     279.8492    293.46424     286.8557   -780.09746    778.85719    6.6085349    40.669517 
136224000    272.56628    530.37046    174.87466   -782.65027     791.4197    355.49579    39.416405 
136228000      259.833    320.12483    245.41003   -808.44779    814.23567      74.7148    39.701134 
136232000    277.67609     348.8075    222.61408    -845.0627    834.88687    126.19342    40.294036 
136236000    281.14595     311.1456    290.29081   -868.77882    852.53923    20.854786    40.304625 
136240000    287.55053    281.63369    197.47848   -887.83404    886.88312    84.155212    40.459359 
136244000    279.67256    362.65563    360.38693   -903.66087    891.14207    2.2687008    40.756797 
136248000    280.66039    287.42348    326.54066   -903.13413    893.82739   -39.117175    41.275248 
136252000     305.5788    350.66143     326.8102   -932.09937    891.56538    23.851231    40.764941 
136256000    302.00129    306.18281    393.96981   -938.29771    900.34238   -87.787001    41.506394 
136260000    296.38252    462.93029    345.07833   -943.30045    917.44196    117.85195    41.846455 
136264000    294.74028    294.95326    294.29718   -942.81517    922.89314   0.65608077    41.771333 
136268000    300.82431    495.01035    182.22228   -945.69715    923.28504    312.78807    41.499513 
136272000    277.40357    384.37386    339.71979   -950.35512    937.83534    44.654079    41.334936 
136276000    255.67658     247.8305    257.98632   -961.91404      956.984   -10.155826    41.416089 
136280000    294.91027    314.64242    376.79861   -992.76741    986.77391   -62.156194    41.489795 
136284000     289.3732    342.60942    600.66075   -1016.6549    1005.6538   -258.05133    41.346851 
136288000    296.86268    240.92613    419.28783   -1048.9248    1023.7895   -178.36169    41.012572 
136292000    274.66014    256.65179     529.1138   -1066.8784    1054.7832   -272.46201    40.587137 
136296000    299.82985    545.10073    252.91957    -1085.389    1060.5945    292.18116    41.019703 
136300000     309.3668    355.23098    384.09783   -1096.6214    1091.0811   -28.866849     40.52935 
136304000    315.81455    396.92481    334.54698    -1139.693     1100.503    62.377838    40.989929 
136308000    298.51993    470.86919    449.10535   -1146.2594    1128.1557    21.763839     40.62561 
136312000    292.27638    340.57723     396.9922   -1179.1138    1167.2926   -56.414965    40.041028 
136316000     306.9074    343.26628    458.99881   -1214.6842    1201.8114   -115.73253    39.533746 
136320000    280.60179    327.99965    340.66931   -1234.9185    1219.9352   -12.669654    39.090591 
136324000    290.30922    360.04427     359.3358   -1270.6907     1260.118   0.70846314     38.74476 
136328000    299.02949    267.04607    390.60638   -1273.9937    1264.1456   -123.56032    37.838836 
136332000    280.01584    328.08551    376.71264   -1287.3117    1280.9057   -48.627129    37.407203 
136336000    279.52995    497.42648    252.83303   -1290.9105    1284.0032    244.59345     37.28473 
136340000    275.90063    313.10617    243.27207   -1299.5587    1288.0325    69.834101    37.222264 
136344000    296.38888    419.34239    372.42715   -1314.0186    1294.4115    46.915244    37.311942 
136348000    301.03483     377.4707     351.2503   -1330.5979    1291.5827    26.220403    37.251236 
136352000    279.11773    416.56463    280.64566   -1346.3047    1341.6143    135.91897    37.541611 
136356000    280.63988     382.2107    260.51484   -1354.7804    1357.6398    121.69586    37.372309 
136360000    259.46035    287.16701    316.79022   -1351.4369    1364.6448   -29.623209    37.723269 
136364000    267.48156    359.78376    330.62271   -1379.2286     1376.994    29.161051    37.868292 
136368000    270.17843    179.77099    265.02801   -1412.8144    1411.7889    -85.25702     37.55223 
136372000     302.2439    343.91888     333.5179    -1445.328    1421.8165     10.40098    38.437956 
136376000    277.01841     303.3965    377.66086   -1461.3135    1450.5599   -74.264356    38.088581 
136380000    270.03821    538.49213    310.56956   -1507.6227    1497.8034    227.92256     37.90249 
136384000      262.094     514.0107    217.96256   -1522.5429    1521.9482    296.04814    38.226093 
136388000    275.33619    292.21559    379.31431   -1535.3857    1540.0495    -87.09872     38.58611 
136392000    275.65892     365.6334    412.49202    -1578.361    1575.2625   -46.858627    38.137481 
136396000    277.06235    423.27496    419.60744    -1593.109     1587.415    3.6675229      37.4965 
136400000    270.49378    326.98102    150.85641   -1609.5645    1615.3829    176.12461    37.484078 
136404000    291.47896    460.69449    293.21331     -1658.29     1635.167    167.48118    37.711883 
136408000     304.5499    329.98149    408.45284    -1686.828    1654.7514   -78.471352    37.871803 
136412000    282.62804    452.16368    277.84579   -1713.4375    1704.1152    174.31789    37.747224 
136416000    277.71926    240.94293    360.96961   -1729.3883    1735.8088   -120.02668    37.767763 
136420000    273.15325     264.5555    252.04375   -1741.9031    1735.7262    12.511745    37.451476 
136424000    252.11833    451.59419    222.34589    -1763.517    1770.8466    229.24831    37.609683 
136428000    285.47637    453.23291     471.8944   -1790.5029    1776.6767    -18.66149    37.734922 
136432000    310.87817    408.74294    387.72543   -1816.8167    1795.5011    21.017509    37.573537 
136436000     284.2835    288.04275    331.10414   -1834.2282       1808.8   -43.061392    37.909361 
136440000    285.95001     264.2635    326.46235   -1860.5998    1844.6858   -62.198859    37.537102 
136444000    284.27578    298.44184    354.95619   -1893.9027    1875.2081   -56.514349    37.341639 
136448000    291.35133    466.85525    311.72474   -1942.9326    1912.7177    155.13051    37.521098 
136452000    284.02994    341.65817    350.64068   -1969.0787    1957.6975   -8.9825126    37.560617 
136456000     266.0264    181.99022    187.51044    -1988.057    1987.5092   -5.5202227    37.804065 
136460000    280.10717    299.18688    253.40148   -2036.9207    2031.8945    45.785405    38.137458 
136464000    303.54798    323.70202    319.23633   -2071.3668    2049.1406    4.4656898    38.181233 
136468000     261.1785    266.73451    456.37811   -2039.9887    2059.1678    -189.6436    38.341642 
136472000    260.96937    569.60203    354.92498   -2069.4056    2068.8605    214.67705    38.098109 
136476000    286.87315    285.32861    351.74921   -2085.8754    2065.2295   -66.420594    38.002697 
136480000    279.46482    327.24096    395.98013    -2073.007    2076.8104   -68.739171    37.251885 
136484000     277.2956    353.92388    341.76711   -2091.8951    2082.2183    12.156779    37.454707 
136488000    299.28657    415.52398    277.43552   -2110.9182    2101.1372    138.08846    37.834993 
136492000    268.06029    450.15831    282.31199   -2147.9967     2130.534    167.84632    37.860613 
136496000    263.44417    424.15498     515.7102   -2147.9847    2161.2682   -91.555227    37.594302 
136500000    309.57695    543.35556    286.14562   -2193.6026    2169.3755    257.20994    37.554904 
136504000    287.34275    341.03801    277.56111    -2191.277    2180.3472    63.476893    37.371088 
136508000    266.01461    317.84181    298.65958   -2215.8732    2220.2103    19.182231    37.646662 
136512000    291.80995    488.91166    323.90868    -2248.703     2226.296    165.00297    37.900458 
136516000    301.52264    377.55667    265.29372   -2263.4142    2246.4791    112.26294    37.703325 
136520000    263.48074    284.47985    299.01231   -2282.2514    2279.0606   -14.532464    37.631631 
136524000    286.94166    475.44042    437.40538   -2304.3204    2306.3179    38.035031    37.816532 
136528000    286.41564    589.28658    321.43111   -2321.9947    2341.3479    267.85547    38.521085 
136532000    273.30352    448.55406    319.73088    -2352.889    2353.2196    128.82318    38.579368 
136536000    263.93495    305.98962     333.3936   -2381.2857     2367.899   -27.403982    38.051767 
136540000    259.64615    392.13399    222.75844    -2393.998    2404.7921    169.37555    38.083142 
136544000    297.67636     331.7668    271.60598   -2441.4236    2416.9877    60.160817    37.765479 
136548000    276.25436    495.08836    151.11553   -2458.7772    2451.6714    343.97284      37.8686 
136552000    317.11105     408.5325    324.51789   -2515.3687    2477.0251    84.014606    38.075574 
136556000    307.99788    330.09965    437.85268   -2548.3911    2512.6423   -107.75303    38.001124 
136560000    277.56225    536.93528    201.95064   -2585.0126    2572.8552    334.98463    38.344468 
136564000    302.36022    497.77634    216.11955    -2610.981    2580.3505    281.65679    38.563565 
136568000    290.14311    494.61645    418.49046    -2611.615    2603.6437    76.125994    38.484624 
136572000    279.65331    230.21583    271.87789   -2635.9755    2630.5207    -41.66206    38.568092 
136576000     288.6947    398.88526    274.32922   -2664.0989     2635.203    124.55604    38.972724 
136580000    281.41514     361.6759     430.1061   -2675.0119    2671.0661   -68.430197    39.183601 
136584000    288.02196     502.7097     270.4164   -2690.7036     2688.649     232.2933    39.089295 
136588000    279.86413    436.28276    268.12078   -2714.0923    2727.8933    168.16198    39.326087 
136592000    286.30605    363.95792    253.17178   -2723.1207    2716.5185    110.78614    39.176492 
136596000    289.57345    322.93978    299.20862    -2734.189     2734.672    23.731165    39.616844 
136600000    271.80949    374.41865    647.61216   -2762.3655    2755.3917   -273.19351    39.476194 
136604000    267.92525    259.85009    558.82193   -2798.5714    2801.0232   -298.97184    39.251321 
136608000    260.26483    204.99045     407.1123   -2803.5707    2813.7944   -202.12185    39.498458 
136612000    300.73721    331.39789    266.96554   -2823.0254     2809.106    64.432351    39.247329 
136616000    325.22648    421.64187    581.62548   -2856.9182    2814.6553   -159.98361    38.991298 
136620000    290.94119    624.75418    376.34059    -2856.864    2842.2583    248.41359    39.242765 
136624000    294.05259    296.06348    350.17753    -2872.019     2846.292   -54.114053     39.28417 
136628000    274.55243    245.08771     334.4402   -2872.1852    2880.0916   -89.352489    39.001376 
136632000    288.66462    437.41386    234.37193   -2917.2664    2896.7854    203.04193    38.701858 
136636000    320.52667    395.99076    363.75418    -2924.885     2896.928    32.236575     38.92941 
136640000    286.61986    163.89418    228.70439   -2950.5303    2925.3765   -64.810212    38.637717 
136644000    302.83739    266.86115    296.25424   -2978.8284    2946.7951   -29.393098    38.600584 
136648000    298.47428    437.25941     230.5614    -2984.838    2991.6063    206.69801    38.569373 
136652000    315.82077    772.82607    378.40188   -3015.0381    3001.6363    394.42419    38.668131 
136656000    281.95741    314.15533    243.49346   -3044.7875     3027.048    70.661872    38.769799 
136660000    295.66811    204.00872    380.39865   -3095.3757     3062.589   -176.38993    38.981943 
136664000    269.63309    457.60848    162.61105   -3104.9081    3112.6108    294.99743    39.041681 
136668000    291.79622    302.57071    386.47674   -3135.7005    3104.2441   -83.906026    38.945811 
136672000     309.9762    436.42101    186.44517   -3166.7903    3121.5846    249.97584    38.928279 
136676000    302.83157    269.42837    375.13322   -3174.0399    3141.2287   -105.70485    38.772523 
136680000    286.94269    324.75184    268.70381   -3183.4691    3170.0998    56.048032    38.777414 
136684000    273.04112    256.53861    214.02827   -3182.2131    3191.1611    42.510337    38.728687 
136688000     304.7822    642.88417    642.71048   -3201.6267    3181.1793   0.17368889    38.915736 
136692000    297.51005    295.27064    424.22475   -3214.3877    3189.6928   -128.95411    39.038254 
136696000     260.5465    372.08081    161.83077   -3233.5812    3232.6973    210.25004    39.261894 
136700000    285.57729    355.27896    339.14974   -3261.7582    3250.7851     16.12922    39.094495 
136704000    284.98111    280.92253    222.88019   -3255.5875    3248.8777    58.042346    38.997001 
136708000    302.63006    423.02559    377.46893   -3272.1814    3244.7246    45.556656    39.035939 
136712000     285.3714    261.22181    359.19031    -3283.677    3261.2154   -97.968499     38.85098 
136716000    293.39414    259.33843    253.28245   -3295.3877     3264.898    6.0559815    38.854638 
136720000    274.50413    335.48919    188.12252   -3338.2406    3314.8022    147.36667      38.7572 
136724000    279.18826    447.27285     231.6482   -3369.3974    3361.4012    215.62465    38.805878 
136728000    297.46315    552.06364    296.46732   -3375.4112    3350.0874    255.59632    38.719982 
136732000    281.52705    477.48892    506.09651   -3387.1086    3367.2567   -28.607591    38.619299 
136736000    278.55603    209.61644    189.36321   -3424.8938    3405.4987     20.25323     38.59707 
136740000    325.56457    270.14792    391.39935   -3476.3532    3424.0349   -121.25143    38.672843 
136744000    294.37467     212.1971    360.73449   -3512.4929    3476.3159   -148.53739    38.523054 
136748000    304.58136    311.47414    144.71867   -3523.1623    3494.5225    166.75547    38.696505 
136752000    304.07593    366.56169    433.40603    -3540.107    3497.7024    -66.84434    38.879639 
136756000    282.95636    523.77118    236.28961   -3548.3679    3534.2973    287.48158    39.193663 
136760000    289.38592    372.30755    410.34502   -3559.6089    3559.7244   -38.037476    39.230283 
136764000    281.85409     372.6958    373.70235   -3599.9533    3564.5513   -1.0065462    39.386891 
136768000    276.44112    296.75013    288.65169   -3593.6177    3588.7107    8.0984437    39.369919 
136772000    265.48701    336.12544    288.63073   -3634.1395    3634.2127    47.494709    39.586513 
136776000    300.06234    311.49351    422.32063   -3650.1555    3634.5777   -110.82712      39.6357 
136780000    275.19347    454.74084    306.59131   -3682.6621     3671.755    148.14953    39.828923 
136784000    277.08063    446.16503    261.03107   -3718.3216    3716.6042    185.13397    39.862862 
136788000    311.04843    418.59337    287.52007   -3745.9729    3726.9164     131.0733    39.733383 
136792000    295.16868    462.05469    478.25515   -3769.6007    3754.3288    -16.20046    39.868437 
136796000    289.88804    538.84529    533.60867    -3786.886    3783.4432    5.2366243    39.820157 
136800000    313.14296    471.67633    203.21334   -3843.7752    3802.2539    268.46299    39.703359 
136804000    272.13994    330.31452    316.06068   -3837.1481    3823.5398    14.253844    39.653769 
136808000    279.15583    336.76373    285.11609   -3861.8805    3848.6698    51.647642    39.575265 
136812000    280.89348    397.83782    375.45939   -3884.4808    3879.0106    22.378429    39.405543 
136816000    304.05555    342.45019    314.22882   -3898.1682     3884.675    28.221368     39.50752 
136820000    288.91213    337.47064    176.65538   -3913.5395    3897.9628    160.81526    39.429458 
136824000    268.26589    262.81023    290.27191   -3946.5667    3951.9055   -27.461675    39.441122 
136828000    317.22465    320.39212    321.48032   -3967.6237    3937.8425   -1.0881979    39.546764 
136832000    287.51656    441.54963    310.63711   -3952.2481    3946.9692    130.91252    39.614861 
136836000    274.60118    223.85121    322.99929   -3977.1135    3958.6046   -99.148081     39.56757 
136840000    272.27968    378.43866    271.79684   -3982.6575    3980.0086    106.64181    39.733298 
136844000    280.35213     551.9181    357.73928   -4014.1461    4003.4918    194.17882    39.617868 
136848000    278.91971    287.46315     236.7352   -4036.0106    4007.9088    50.727952      39.4777 
136852000    302.56742    242.74595    248.90973   -4035.6747    4024.1306   -6.1637831    39.383255 
136856000    267.01414    313.69282    364.84227     -4040.15    4043.3432   -51.149452    39.315383 
136860000    272.44171    333.12431    373.88042   -4086.5796    4086.6032   -40.756106    39.252466 
136864000    321.36041     472.8679    542.10669   -4144.1727     4088.327   -69.238796     39.27974 
136868000    288.92038    280.41325    522.02912   -4150.3174    4121.8105   -241.61587    39.328396 
136872000    259.48485    278.77299    270.75423    -4163.074    4167.7096    8.0187687    39.245633 
136876000    277.18932     293.1831    372.84795   -4193.1638    4196.7273   -79.664849    39.162895 
136880000    309.83059    457.15071    440.82266   -4228.0474    4197.9098    16.328048    39.277784 
136884000     297.9605    311.52903     279.8401   -4219.7108    4200.3099     31.68893    39.323771 
136888000    319.34717    276.95144    325.34129   -4255.1831    4223.6678   -48.389849    39.178354 
136892000    287.01617    291.39187    483.61101   -4261.0518    4254.6532   -192.21914    39.148073 
136896000    301.25794    372.35576    491.72945   -4310.6631    4289.6607   -119.37369    39.063908 
136900000     307.2572    532.61721    250.21795   -4336.3957    4307.2495    282.39926    38.945771 
136904000    307.38991    330.58736    380.77986   -4347.1586    4336.7475   -50.192502    38.937777 
136908000    289.48954    379.67091    240.44227   -4381.7773    4369.1882    139.22865    39.030112 
136912000    324.63198    251.07093    133.11867   -4434.5537    4409.0744    117.95226    39.026091 
136916000    294.99138    308.15027    301.92866   -4452.1749    4430.3056    6.2216176    38.856238 
136920000    324.14901     530.7095    356.90926    -4495.438    4460.3908    173.80024    38.785993 
136924000    284.18965    227.47513    378.77133   -4497.3332    4490.3078    -151.2962    38.878386 
136928000    264.24873     351.1137    242.82589   -4513.0427    4520.0652    108.28781    38.976583 
136932000     298.7188    458.41812    386.39962   -4530.3841    4521.0091    72.018496    38.872306 
136936000    283.68288    340.33215    242.42465    -4552.281    4552.2201    97.907492    38.745081 
136940000    288.66934    569.72073    335.78583   -4582.4378    4569.1328     233.9349    38.707579 
136944000    266.07239    355.27239    349.32957   -4590.9688     4601.481    5.9428207    38.659943 
136948000    286.27129    453.76766    398.86542   -4620.3711    4618.3259    54.902233    38.693252 
136952000    276.80667    293.84209    297.91202   -4660.5059    4650.9449   -4.0699297    38.621515 
136956000    255.52102    220.49269    289.13045   -4667.5356    4678.3869   -68.637763    38.494841 
136960000     305.8095    405.93037    274.23553    -4699.398    4683.9514    131.69484    38.426706 
136964000    267.85769    213.30776    418.26022   -4715.2262    4712.3258   -204.95245    38.386483 
136968000    307.62484    408.99608    419.36057   -4746.7005    4723.2981   -10.364487    38.327039 
136972000    262.55038    499.58101    193.01774   -4784.3854    4782.7549    306.56327    38.411195 
136976000    273.61781    213.83811    357.35503   -4778.9738    4777.2632   -143.51692     38.28226 
136980000    258.43306     332.2127    321.24481   -4796.7014    4794.4314     10.96789    38.267217 
136984000    255.72687    318.88861    270.99585   -4794.2434    4822.3672     47.89276    38.325413 
136988000     258.0067    407.50566    326.38535   -4824.1731    4831.2397    81.120307    38.211466 
136992000    273.85623    357.33573    351.82415   -4845.3047    4851.7172    5.5115822    38.175161 
136996000    287.16818    310.34894    345.22355    -4889.717    4878.6805   -34.874609     38.05454 
137000000      273.024    212.86936    335.50334   -4916.0962    4906.1658   -122.63398    37.936358 
137004000    315.94915    481.66364    270.58263   -4945.3695    4904.2914    211.08101    37.917689 
137008000    321.32391    565.81763    431.73309   -4971.3149    4939.3949    134.08454    37.961054 
137012000    270.85697    325.11557    227.33899   -4962.9938     4959.106    97.776579    37.914937 
137016000    283.61475    318.81732    199.79414   -4974.2867    4972.1252    119.02318    37.847794 
137020000    279.47122    397.44422    464.60029   -4998.8708    4989.4755    -67.15607    38.002591 
137024000    264.64272    334.11738     229.0216    -5021.555    5029.3573    105.09578    38.002632 
137028000    262.16048    261.17132    244.85631   -5046.8419    5055.8534     16.31501    37.915325 
137032000    286.46262    647.55936    177.24773   -5092.3168    5059.7884    470.31162    38.058037 
137036000    287.93064    442.01573    214.65724   -5119.3106    5102.7831    227.35849    38.065689 
137040000      289.249     333.0449    216.09985   -5126.8799     5124.666    116.94505    38.138159 
137044000    285.76035    390.27461    359.11506    -5151.468    5137.6917    31.159553    38.162297 
137048000    269.89592    271.89458    152.13752   -5196.3088    5185.3509    119.75706    38.193168 
137052000    281.21201    309.89968    330.62795   -5209.6066     5211.898   -20.728268    38.277528 
137056000    286.38468     314.6974    430.40496   -5241.3742    5224.4396   -115.70756    38.133786 
137060000    265.10145    353.83822    261.91275   -5258.5618    5265.8797    91.925475    37.996305 
137064000     287.2881    538.47364    469.12389   -5277.2517    5257.0308    69.349751    37.695218 
137068000    272.98409    309.57619    326.12415   -5278.7376    5277.2775   -16.547962    37.739218 
137072000     295.0388    411.64459    386.88715    -5293.263    5277.7284    24.757447    37.962149 
137076000     264.5683    206.68364    286.34553   -5279.8317    5276.2337   -79.661891    38.108534 
137080000    311.64153    222.23311    225.15021   -5304.3977         5273   -2.9170991    38.060633 
137084000    296.95135    310.45325    389.35149   -5315.3417    5310.9002   -78.898238    37.892589 
137088000    290.86425    322.14308    190.25675   -5355.0925    5329.7862    131.88632    38.012715 
137092000    269.76575    617.88878    297.00467   -5337.2674    5341.0125    320.88411    38.115802 
137096000    276.91413    275.41039    292.72851   -5337.8448    5351.3003   -17.318123    38.124029 
137100000    298.01024    487.61935    440.55605   -5366.1182    5349.7414    47.063296    38.195777 
137104000    253.20859    301.25542    183.27825   -5391.4412    5402.1941    117.97717    38.173012 
137108000    259.06177    180.67726    273.79047   -5403.1992    5415.0538   -93.113209    38.279585 
137112000      275.743    435.77326    327.46441   -5428.5208    5426.1963    108.30885    38.407483 
137116000    290.84586    259.40751    355.17017   -5455.6537    5453.1866   -95.762663    38.443467 
137120000    282.46219    416.61047    365.96698   -5494.1813     5464.529    50.643488    38.304581 
137124000    283.48384    455.45251    220.25125   -5490.7388    5490.9378    235.20125    38.217647 
137128000     254.7852    397.17654    316.88654   -5490.9764     5515.744    80.289998    38.233491 
137132000    274.35705    393.15376     248.6694   -5534.5647    5535.6956    144.48436    38.280871 
137136000    299.97381    416.51454    320.76113   -5557.8237    5550.3286    95.753414    38.233965 
137140000    294.69854    435.32547    260.60464   -5575.0452    5559.1476    174.72083    38.142136 
137144000     279.1203    166.76446    288.47209   -5597.7493    5582.0684   -121.70764    37.922139 
137148000    282.59403    345.42761    291.40468   -5612.9235     5607.429    54.022929    37.904303 
137152000    269.78887     237.5307    469.03232   -5633.7852    5619.7807   -231.50162    37.799694 
137156000    255.96595    283.23553    305.83277   -5674.1815    5668.0181   -22.597231    37.928191 
137160000    284.35438    350.01041     334.4496   -5710.9158    5697.5791    15.560808     37.88827 
137164000    319.40882    403.84931    465.10516   -5736.6811    5704.3384   -61.255849    37.921288 
137168000    277.18034    275.33945    345.26846   -5725.1276    5730.6487   -69.929009      37.8612 
137172000    289.12083    249.23224     378.9375   -5788.2272    5778.0607   -129.70526    37.766425 
137176000     299.1113    322.32788    414.93715   -5794.6828     5804.476    -92.60927    37.808042 
137180000    292.24765    232.54346    438.68807   -5810.8145    5817.9246    -206.1446    37.804979 
137184000    289.27383    307.63627    444.64442   -5869.8629    5844.3857   -137.00815    37.823512 
137188000    269.40982    248.43328    282.26287   -5876.0493    5884.6621    -33.82959    37.862733 
137192000    289.39421    390.97214    288.29975   -5903.8118    5909.7405    102.67239    37.866203 
137196000    293.71169    405.48554    310.99554   -5927.2022    5914.3476    94.490005    37.903867 
137200000    293.18582    458.29013    478.04386   -5943.7437    5929.0319   -19.753733    37.819123 
137204000    259.25443    251.73262    278.32876   -5975.5929    5976.0754   -26.596147    37.914023 
137208000     278.4178    213.65122    374.88277   -5997.7449     5993.618   -161.23155    37.887592 
137212000    251.41176    312.57173    240.27528   -6020.7198    6010.7445    72.296454    37.878109 
137216000    285.03167     452.4632    329.00571   -6043.7986    6031.9701    123.45749    37.893768 
137220000    262.84316    318.84351    420.41639   -6052.2425    6055.6687   -101.57289    37.754557 
137224000    307.08862    331.36379    278.82622   -6090.0142     6079.018    52.537574    37.753484 
137228000    307.01751    327.27369    470.17203   -6126.0272    6098.5716   -142.89834    37.762435 
137232000    314.66649    257.32918    242.50008   -6140.3173     6121.379    14.829097    37.789113 
137236000    278.26685    214.41695    296.12784   -6146.5333    6138.7445   -81.710892    37.747889 
137240000      298.241    329.37439    256.12373   -6180.1986    6178.2012    73.250661      37.7983 
137244000    287.50846    308.25455    309.70419   -6180.1464    6171.8714   -1.4496336    37.803943 
137248000    298.18099    457.59822    406.46919   -6214.5355    6196.4631    51.129031    37.866875 
137252000    297.20867    385.61186    464.79941   -6239.0431    6199.9262   -79.187551    37.906657 
137256000    280.50502    326.00372    340.29798   -6251.0822    6241.4194   -14.294265    37.999977 
137260000     303.4416    472.12474     405.5949   -6309.2458    6284.7353    66.529839    38.152332 
137264000    256.08807    317.00346     245.3339   -6336.9872    6340.3888    71.669556    38.261317 
137268000      286.537    191.18614    312.35108   -6355.8066    6351.7479   -121.16494    38.207259 
137272000    281.96766    152.90618    396.15637   -6369.9829    6367.7272   -243.25019     38.03022 
137276000    279.54035     502.8558    319.72617   -6394.3795    6393.5044    183.12963    38.067593 
137280000    284.84051    385.66659     443.5335   -6405.0724    6381.6766    -57.86691     38.11324 
137284000    325.37572    401.86952     331.7028   -6429.4354    6390.8116    70.166727     38.04502 
137288000    315.14973     613.6406    319.46243   -6436.0788    6402.7018    294.17817    38.046524 
137292000     308.6431    565.99025    263.99451   -6453.8895    6443.0655    301.99574    38.101694 
137296000    285.92639    318.96873    293.99699   -6482.3251    6463.8595    24.971744     38.14704 
137300000    255.85771    353.60832    373.89696   -6474.9062    6485.2453   -20.288642    38.197981 
137304000    288.89091    320.98382    613.30847   -6504.5006    6499.1781   -292.32466    38.292516 
137308000    292.82354     175.1163    523.30573    -6555.046    6539.2554   -348.18943    38.244271 
137312000    288.91024    176.47224    269.40023   -6560.4263    6550.0143   -92.927986    38.205807 
137316000      254.085    223.94262    258.92773   -6550.2524    6571.9396   -34.985108    38.184004 
137320000    274.35795    351.27147     238.3827   -6582.4046    6575.3829    112.88877    38.145135 
137324000    286.20132    214.98089    211.83153   -6617.5234    6621.1996    3.1493643    38.086557 
137328000    258.00833    342.06585    423.95828   -6627.1412    6632.6048   -81.892428    37.925901 
137332000    290.71311    567.85301    431.41079   -6647.9649    6637.8622    136.44222    37.905589 
137336000    276.32412    254.50267    464.13346   -6677.8685    6663.1426    -209.6308    37.880686 
137340000    304.05462    483.31628    319.75015   -6678.7645    6665.5275    163.56613    37.882226 
137344000    303.81612    293.31103     483.3964   -6691.8654    6683.9872   -190.08537    37.993693 
137348000    275.07528    347.90037    320.29586   -6701.9401    6710.4854    27.604512    37.982565 
137352000    287.76704    313.88203    347.27831   -6729.4527    6731.0691   -33.396278    37.953129 
137356000    274.57048    208.75567    256.92412    -6741.957    6742.9305   -48.168446    37.990423 
137360000    286.58469     280.9863    241.36339   -6773.2133    6749.6311    39.622914    38.013529 
137364000    291.01328    326.51241    174.63773   -6779.4518    6796.9736    151.87468    38.055387 
137368000    288.49412    357.81603    300.61128    -6821.292    6823.3415    57.204755    38.011473 
137372000    307.32718    307.01039    211.22516   -6820.1235    6805.7373    95.785238     38.01132 
137376000    288.03948    279.69999    421.39276    -6857.292    6841.3619   -141.69278    38.031878 
137380000    294.39481     480.6734    222.98517   -6906.3604    6891.4228    257.68823    38.129729 
[...]
167328000    294.81225    312.15855    298.30849   -165976.29    165979.31     13.85006    35.444496 
167332000     299.7577     497.1705    284.91308   -166003.04    166008.17    212.25742    35.447219 
167336000    278.38602    287.59045    121.74771   -166027.44    166040.21    165.84274    35.447658 
167340000    268.56431    281.24778    325.31709   -166030.57    166055.63   -44.069306     35.44936 
167344000    287.99928    318.02984     389.5018   -166035.09    166053.04   -71.471965    35.446789 
167348000    275.21814    349.12144    300.61618    -166045.6    166075.21    48.505266     35.44737 
167352000    250.69585    349.27295    404.37431   -166087.49       166124   -55.101363    35.448626 
167356000    290.56941    209.05956    276.96652   -166123.02    166144.99   -67.906959    35.447208 
167360000     266.3216    430.65342    392.38043   -166172.47    166203.25     38.27299    35.452083 
167364000    268.63879    402.13157    203.00304   -166201.54    166232.59    199.12853    35.454503 
167368000     268.9334    418.25604    255.25269   -166227.02    166235.55    163.00336    35.456996 
167372000    272.09611    393.65648    206.57858   -166229.58    166256.45     187.0779    35.454152 
167376000    275.87368    234.22064    244.73628    -166240.6    166241.69    -10.51564    35.450618 
167380000    291.73734    415.51577    270.42579   -166243.87    166254.04    145.08999    35.449712 
167384000    292.23918    266.19238    280.19049   -166252.05    166262.79   -13.998111     35.44939 
167388000    274.46314    336.73876    291.65498   -166283.39    166297.48    45.083783    35.450673 
167392000     293.8994    363.64752    356.87222    -166301.2    166309.89     6.775301    35.448568 
167396000    275.64012    421.94089    421.94871   -166313.37     166334.7 -0.0078185066    35.447315 
167400000    294.45857    333.61902    258.99084   -166323.39    166342.05    74.628188    35.445498 
167404000    280.12338    352.71201    392.91457   -166367.21    166378.62   -40.202559    35.446272 
167408000    268.03423    300.38613    339.84948   -166375.46    166387.03    -39.46335    35.447493 
167412000    257.71763    340.09174    227.56343   -166387.08    166417.82    112.52831    35.444652 
167416000    281.88049    335.40149    229.77645   -166400.07    166440.84    105.62504    35.446554 
167420000    290.77114    247.99445    378.95869   -166428.84    166431.01   -130.96424    35.446733 
167424000    282.60675    590.88593    343.87668   -166462.91    166462.23    247.00926    35.452922 
167428000    287.29783    391.36525    362.99661   -166467.54    166494.01     28.36864    35.450247 
167432000    266.21057    274.10748    323.30209   -166475.17    166522.11   -49.194611     35.45468 
167436000    267.73682    319.94363     235.9612   -166497.97    166517.17    83.982423    35.453473 
167440000    280.29252    396.46618    232.93234   -166517.81    166541.47    163.53384    35.454272 
167444000    298.14974    344.16008    287.60063   -166550.49    166552.94    56.559451    35.459953 
167448000    300.66109    379.89288    332.56085   -166600.13    166584.87    47.332028     35.45976 
167452000    291.40299     295.5957    319.09693   -166632.99    166630.89   -23.501228    35.462825 
167456000    286.40777    345.83918    369.17564   -166640.27    166640.34   -23.336466    35.465783 
167460000    297.41252    470.90042    237.21437   -166650.36    166666.35    233.68605     35.46508 
167464000    308.96807    463.42952    412.45219   -166683.31    166669.87    50.977331    35.463503 
167468000    260.06978    276.07084    330.82797   -166685.63     166707.2   -54.757125     35.46046 
167472000    262.07263     181.4138    250.74412   -166707.59    166721.07   -69.330316    35.458055 
167476000    267.63156    494.26562    296.36906   -166723.43    166761.63    197.89656     35.45807 
167480000    271.16627    397.76476    237.93963   -166745.05     166765.9    159.82513    35.455058 
167484000     267.0582     333.8019    373.81225   -166750.92    166787.62   -40.010351    35.454788 
167488000    287.16577    287.10978    246.29386   -166820.87    166805.11    40.815921    35.453803 
167492000    277.61767    354.08329    195.47567   -166799.28    166825.77    158.60762    35.455701 
167496000    272.99936    245.88949     289.4263   -166805.55    166829.61   -43.536807    35.458296 
167500000    259.80581     377.0164    449.81399   -166837.28     166859.4   -72.797594     35.45873 
167504000    282.04995     404.4148    277.42739   -166849.36    166865.78    126.98741    35.459284 
167508000    268.10555    187.04253    227.87157   -166868.96    166896.19   -40.829044    35.460778 
167512000    285.23363    428.11529    255.57963   -166915.92    166925.24    172.53566    35.459078 
167516000    300.85857    438.05581    343.28147   -166954.45    166963.92    94.774334    35.462557 
167520000    291.35176     483.4335     302.6512   -166945.26       166960    180.78231    35.466995 
167524000    278.51488    379.87404    328.53593   -166955.84    166964.22    51.338115    35.462279 
167528000    294.42303     524.8984    599.35335   -166982.72    166986.12   -74.454953    35.461654 
167532000    284.72103    348.61557    363.84443   -167012.52    167011.04   -15.228861    35.459742 
167536000    287.93317    237.57046    228.93338   -167033.69    167055.04    8.6370856    35.458922 
167540000    258.29941     341.6726    301.80068   -167043.08    167063.01    39.871918    35.457481 
167544000     298.8263    558.09783    254.76245   -167061.74    167081.45    303.33538    35.462186 
167548000    277.27845    297.52983    297.55935    -167069.8    167066.52 -0.029515406    35.466109 
167552000    277.16303    490.85009     226.8035   -167059.89    167080.82    264.04659    35.470108 
167556000    289.43278    272.87463    299.59119   -167079.39    167103.45   -26.716552    35.472489 
167560000    272.10521    493.50543    274.40724   -167102.81    167123.33    219.09819    35.474798 
167564000    262.43516    344.99176    211.66121    -167110.7    167134.15    133.33055    35.468224 
167568000     290.1218    278.07945    250.74348   -167162.29    167153.71     27.33597    35.463801 
167572000    268.08536    303.88852    504.38667   -167160.23    167171.69   -200.49815    35.470447 
167576000    281.33154     319.7422    409.72709    -167197.4    167203.22   -89.984886    35.468796 
167580000    284.46408    265.35968    258.34958   -167197.12    167203.26    7.0101048    35.473685 
167584000    292.67172    571.99608    333.04461   -167201.71    167208.29    238.95147      35.4734 
167588000    288.74016    262.75626    294.56985   -167237.12    167238.83   -31.813583    35.477049 
167592000    279.17122    364.45467      384.326    -167271.8    167274.87   -19.871332    35.474684 
167596000    279.57969    352.29123    185.99627   -167301.21    167312.78    166.29496    35.474885 
167600000    283.14681    407.20988    436.74695   -167318.37    167340.23   -29.537071    35.475964 
167604000    258.58242    282.27483    244.99262   -167360.63    167379.67    37.282213    35.471802 
167608000    289.29582    374.86426    417.71343   -167371.06    167392.27   -42.849173    35.476219 
167612000     276.9664    338.76149    289.45175   -167412.45    167409.21    49.309733    35.473563 
167616000     279.6697    373.95222    512.25814   -167454.59    167451.24   -138.30592    35.467832 
167620000    266.94105    343.21013    286.25727   -167498.84     167520.9    56.952861    35.469213 
167624000    241.59113    390.98583    281.03557   -167504.53    167543.84    109.95026    35.462548 
167628000    270.54659    394.85325     516.9136   -167548.03    167576.93   -122.06035    35.459185 
167632000    279.39672    568.85284    254.62227   -167573.21    167581.96    314.23057    35.464497 
167636000    294.70707    373.49957    200.91834    -167577.6    167592.42    172.58123    35.466681 
167640000    261.95876    206.00571    343.46868   -167586.14    167609.44   -137.46296     35.46794 
167644000    304.01433    504.94664    244.47246    -167620.4    167638.88    260.47418    35.465177 
167648000    303.53495     296.5778    211.27242   -167647.47    167648.06    85.305379    35.460755 
167652000    288.76361    363.37006    294.91531   -167707.82     167703.7    68.454754    35.460715 
167656000    266.59155    245.15094    503.92734   -167705.42     167721.3    -258.7764    35.457912 
167660000    311.48842    696.81504    362.05546   -167724.93     167719.2    334.75958    35.456884 
167664000    280.26461    214.80659    401.39023    -167736.2    167745.59   -186.58364    35.450708 
167668000     310.5078    435.49693    322.59536   -167782.28    167789.66    112.90157    35.458087 
167672000    282.95637    291.28568    378.19725    -167793.7       167811   -86.911577     35.45572 
167676000    298.85157    441.09814    518.98967   -167814.81    167804.65   -77.891532    35.457246 
167680000    272.75107    334.61977    189.05647   -167796.04    167798.85     145.5633    35.460837 
167684000    296.60412    183.14582    180.60057   -167833.43    167827.58    2.5452479    35.462302 
167688000    282.39841    406.02134    373.72283   -167857.29    167865.44    32.298508    35.458076 
167692000    273.78875    252.02996    160.30414    -167875.3    167894.34    91.725822    35.458185 
167696000    298.67992    205.78845    265.21705   -167898.54    167893.47   -59.428596    35.460452 
167700000    278.30405     271.3789    246.15656   -167933.26     167949.7    25.222342     35.46187 
167704000    273.30081    344.18544    325.58861   -167928.89    167947.57    18.596834    35.462937 
167708000    269.82339    288.93431    376.02853   -167960.98    167989.44   -87.094212    35.461161 
167712000    283.41278    252.92682     441.5682   -167971.46    167982.44   -188.64138     35.45883 
167716000    288.00014    386.07511    321.02774   -167985.53    168001.89     65.04737    35.461759 
167720000    281.11101    376.68665    314.93683   -167987.08    167986.63    61.749825    35.458568 
167724000    276.45453    346.84825    341.25056   -167987.87    168011.66    5.5976924    35.463337 
167728000    262.04209    285.25865     268.5257   -168011.05    168043.45    16.732943    35.459122 
167732000    262.54251    247.93661    255.95678   -168048.15    168059.67   -8.0201686    35.454617 
167736000    281.03056     367.5949    419.14945   -168080.77    168080.42   -51.554549    35.454624 
167740000    305.66232    238.58077    236.27823   -168102.09     168084.3    2.3025406    35.455604 
167744000    289.37931    464.26201    372.59592   -168128.62    168128.12    91.666098     35.45441 
167748000    316.40911    518.18487    393.49969   -168140.58    168138.55    124.68518    35.450223 
167752000    295.13898    421.71602    334.29033   -168144.55    168143.63    87.425686    35.453631 
167756000    254.11087     308.8981    269.51205   -168149.35    168188.34    39.386051    35.460421 
167760000    273.82479    326.31606     481.6391   -168158.12    168175.26   -155.32304    35.461341 
167764000    316.02247    766.61013    418.71137    -168205.9    168200.08    347.89875     35.46109 
167768000    278.53306    459.60445    457.83597   -168200.84    168229.57      1.76848    35.461183 
167772000    263.90178    273.64478    263.17245   -168235.17    168258.51     10.47233    35.460915 
167776000    300.16329    405.04526    345.93301   -168271.86    168270.53    59.112255    35.461516 
167780000    258.37924    301.60429    263.68345   -168277.87    168314.72    37.920842     35.46035 
167784000    293.92895    349.16629    366.56144   -168296.13    168303.85   -17.395156    35.458114 
167788000    276.19171     364.7754    326.81409    -168307.8    168328.75    37.961311     35.45711 
167792000    278.27334    492.18754    470.31732   -168357.95     168385.7    21.870227    35.463731 
167796000    270.19046    447.50315    194.57652   -168393.89    168413.02    252.92663    35.463245 
167800000    294.53482    355.72263    313.72525    -168417.1    168424.37    41.997379    35.467764 
167804000    280.17795    653.51676    255.47605   -168425.29    168437.81     398.0407    35.470211 
167808000    297.96216    360.98058     407.7777   -168463.87    168460.57   -46.797122    35.469864 
167812000    307.92078    524.38272    366.48382   -168468.99    168481.31    157.89889    35.467011 
167816000    287.41246    544.34906    192.76294   -168486.55    168493.03    351.58612    35.466157 
167820000     250.3474    272.39587    398.21538   -168479.38    168529.28   -125.81951    35.470689 
167824000    291.86786    351.89788    346.58055   -168535.94    168523.76    5.3173312    35.469258 
167828000     261.5738    260.64235    269.17891   -168532.34    168544.68   -8.5365569    35.473016 
167832000    309.10615    306.10694    329.51637   -168550.44    168539.24   -23.409426    35.474564 
167836000    290.27881    526.78919    198.62973   -168557.13    168563.46    328.15946    35.480939 
167840000    312.33743    376.06285    483.81764   -168561.43     168561.3   -107.75479    35.484512 
167844000    282.80134    169.93581    264.99885   -168575.64    168605.65   -95.063034    35.483441 
167848000    267.32478    289.77325    301.51919   -168600.62    168622.75   -11.745935    35.482861 
167852000    284.98682    340.62501    418.31422    -168640.3    168649.02    -77.68921    35.484977 
167856000     306.3844    493.15849    295.84233   -168650.93     168662.6    197.31616    35.487532 
167860000     270.2328    302.36886    330.87213   -168676.87    168699.57    -28.50327    35.485534 
167864000     292.1235    311.11762    317.18642   -168681.24    168696.21   -6.0687956    35.483036 
167868000    280.33559     426.8792    206.38781   -168696.81    168711.74    220.49139     35.48542 
167872000    269.44111    353.41773    488.36125   -168718.44    168749.04   -134.94352    35.488638 
167876000    277.47158    380.26789    332.32874   -168750.67    168762.37    47.939145    35.487163 
167880000    289.89863    398.60944    313.15785   -168757.36     168771.1     85.45159    35.490756 
167884000    279.96757    523.22532    258.07228   -168768.75    168782.13    265.15304    35.495753 
167888000    291.90296    479.61128    217.27224   -168809.63    168813.18    262.33905    35.495432 
167892000    309.13181    420.99283    389.42631   -168821.21    168810.98     31.56652    35.491083 
167896000    289.54458    281.95955    352.11252   -168828.88     168846.7   -70.152972    35.488872 
167900000    289.14606    280.91466    387.74156   -168877.07    168894.43    -106.8269     35.49031 
167904000    252.40039    299.27499    309.19507   -168875.29    168921.79   -9.9200799    35.486418 
167908000    285.76745    498.17885    334.36985   -168896.11    168893.53    163.80901    35.483594 
167912000    311.53429    418.33947    457.05002   -168917.08    168918.31   -38.710549    35.484973 
167916000    295.26007    262.53144    363.03324   -168931.61    168946.03    -100.5018    35.482804 
167920000    280.18572    170.64782    397.44852   -168917.21    168944.54    -226.8007     35.48421 
167924000    301.95991    319.83321    558.64835   -168933.95     168929.9   -238.81514    35.484201 
167928000    276.17226    187.38731    303.34383   -168936.45    168950.08   -115.95652    35.488832 
167932000    300.76232    376.56752    245.15296   -168980.42    168970.94    131.41456    35.492467 
167936000     265.9724    344.30464    216.76559   -168995.91    169017.45    127.53905    35.491043 
167940000     314.8823    548.06565    209.00153   -169040.83    169031.78    339.06412    35.495522 
167944000    286.86045    409.78716    356.61574   -169064.28    169069.75    53.171422    35.491864 
167948000    274.97171    316.69744    351.60476    -169092.2    169106.79   -34.907316    35.494874 
167952000     282.7337    427.66275    218.13081   -169080.84    169104.64    209.53194    35.496512 
167956000    270.17082    342.47479    260.91626   -169083.86    169092.42    81.558537    35.498663 
167960000    282.14679    339.15659    421.45634   -169093.64    169120.13   -82.299755     35.49934 
167964000    284.63067    367.01443    347.98029   -169100.99    169142.95     19.03414    35.499081 
167968000    256.97491    388.67234    338.98462   -169101.68    169146.15    49.687711    35.503479 
167972000    275.84571    401.15523    292.60891   -169143.78    169156.97    108.54632    35.505417 
167976000    246.09424    375.83344    318.16931   -169155.95    169180.62    57.664129     35.50486 
167980000    325.11889    335.33264    720.58681   -169190.82    169168.95   -385.25416    35.501477 
167984000    273.90205    464.98254    397.07584   -169206.34    169222.15    67.906707    35.499025 
167988000    286.81859     294.3913    160.49582   -169257.86    169262.48    133.89549    35.498618 
167992000    279.19258     204.8403    209.04161   -169269.23    169286.46   -4.2013099    35.499291 
167996000    277.01254    323.78788    213.66771   -169279.96    169304.11    110.12017    35.496236 
168000000    265.57424    420.51473    387.83154   -169290.53    169312.99    32.683189    35.492597 
168004000    247.31558    597.81289    211.58316   -169306.08    169325.09    386.22973    35.492532 
168008000    279.63647    222.73984     197.7197   -169323.83    169326.72    25.020133     35.49694 
168012000    269.49377    380.96402    225.50982   -169332.51    169351.87     155.4542    35.499124 
168016000    291.86213     389.3813    413.94478   -169376.96    169390.76   -24.563484    35.500885 
168020000    240.81495    275.85542    311.47512   -169379.99     169414.2   -35.619706    35.496856 
168024000    295.58586    332.30815    229.73045   -169413.54    169437.51     102.5777    35.497252 
168028000    262.88056    314.33493    109.61135   -169458.36    169482.26    204.72358    35.504216 
168032000    282.98027    458.59258    297.55106   -169501.34    169505.05    161.04152    35.510374 
168036000    291.50848     268.8917    273.10701   -169519.45    169534.88   -4.2153135    35.512345 
168040000    290.68357    508.19294    268.64338    -169560.7    169553.91    239.54956    35.508906 
168044000    313.01289    297.44944     460.0702   -169578.75     169576.8   -162.62076    35.511164 
168048000    278.96225    383.90257    216.27222   -169602.26    169619.21    167.63035    35.511277 
168052000    287.73062     424.5554    362.26368    -169627.7    169634.98    62.291717    35.511177 
168056000    300.47909    461.44687    391.03846   -169642.68    169637.34     70.40841    35.508977 
168060000    263.92694    458.59751    274.18419   -169639.41    169673.59    184.41332    35.510779 
Loop time of 5393.36 on 1 procs for 32000000 steps with 196 atoms

Performance: 640.788 ns/day, 0.037 hours/ns, 5933.221 timesteps/s
99.9% CPU use with 1 MPI tasks x no OpenMP threads

MPI task timing breakdown:
Section |  min time  |  avg time  |  max time  |%varavg| %total
---------------------------------------------------------------
Pair    | 1594.9     | 1594.9     | 1594.9     |   0.0 | 29.57
Bond    | 2688.7     | 2688.7     | 2688.7     |   0.0 | 49.85
Neigh   | 65.42      | 65.42      | 65.42      |   0.0 |  1.21
Comm    | 9.643      | 9.643      | 9.643      |   0.0 |  0.18
Output  | 3.9571     | 3.9571     | 3.9571     |   0.0 |  0.07
Modify  | 1000.2     | 1000.2     | 1000.2     |   0.0 | 18.54
Other   |            | 30.52      |            |       |  0.57

Nlocal:    196 ave 196 max 196 min
Histogram: 1 0 0 0 0 0 0 0 0 0
Nghost:    0 ave 0 max 0 min
Histogram: 1 0 0 0 0 0 0 0 0 0
Neighs:    3867 ave 3867 max 3867 min
Histogram: 1 0 0 0 0 0 0 0 0 0

Total # of neighbors = 3867
Ave neighs/atom = 19.7296
Ave special neighs/atom = 5.87755
Neighbor list builds = 308791
Dangerous builds = 0

write_restart FINALCONFIG

Total wall time: 1:34:23
