LAMMPS UA chain data file
 
         196  atoms
         194  bonds
         192  angles
         190  dihedrals
           0  impropers
 
           3  atom types
           1  bond types
           1  angle types
           1  dihedral types
           0  improper types
 
    -400.000000     400.000000 xlo xhi
    -400.000000     400.000000 ylo yhi
    -0.050000      124.000000 zlo zhi
 
Masses
 
  1   14.00
  2   14.00
  3   14.00
 
Atoms

 1 1 3 -3.07282 0.191334 -0.0123858 0 0 0
 2 1 3 -1.7844 0.651133 1.02668 0 0 0
 3 1 3 -1.43247 1.12712 2.59215 0 0 0
 4 1 1 0.0496276 1.20538 3.4373 0 0 0
 5 1 1 0.752655 0.953008 4.99776 0 0 0
 6 1 1 1.26023 -0.239852 6.15898 0 0 0
 7 1 1 0.655115 -1.50292 7.27259 0 0 0
 8 1 1 -0.15993 -1.80953 8.84477 0 0 0
 9 1 1 -1.40642 -1.25601 9.94852 0 0 0
 10 1 1 -1.93685 -0.0197418 11.0258 0 0 0
 11 1 1 -1.5874 0.788908 12.5345 0 0 0
 12 1 1 -0.412022 1.35664 13.6161 0 0 0
 13 1 1 0.849248 0.825282 14.7367 0 0 0
 14 1 1 1.1676 0.189773 16.3511 0 0 0
 15 1 1 0.91595 -1.10341 17.5015 0 0 0
 16 1 1 -0.328016 -1.71272 18.6397 0 0 0
 17 1 1 -1.05157 -1.47658 20.1922 0 0 0
 18 1 1 -1.63135 -0.358588 21.4299 0 0 0
 19 1 1 -1.12439 0.943239 22.459 0 0 0
 20 1 1 -0.282427 1.32834 23.9897 0 0 0
 21 1 1 1.02115 0.926739 25.0747 0 0 0
 22 1 1 1.54247 -0.260414 26.3313 0 0 0
 23 1 1 1.00211 -1.2733 27.6788 0 0 0
 24 1 1 -0.17858 -1.54647 28.9237 0 0 0
 25 1 1 -1.24216 -0.788596 30.1258 0 0 0
 26 1 1 -1.34808 0.291057 31.5529 0 0 0
 27 1 1 -0.463636 1.22258 32.8378 0 0 0
 28 1 1 0.839969 1.19213 34.037 0 0 0
 29 1 1 1.59729 0.276264 35.3334 0 0 0
 30 1 1 1.43316 -0.879727 36.6025 0 0 0
 31 1 1 0.468342 -1.63126 37.9037 0 0 0
 32 1 1 -0.671745 -1.41077 39.158 0 0 0
 33 1 1 -1.24828 -0.29936 40.4239 0 0 0
 34 1 1 -0.825404 0.965013 41.578 0 0 0
 35 1 1 0.245106 1.37717 42.954 0 0 0
 36 1 1 1.24226 0.857372 44.3351 0 0 0
 37 1 1 1.68194 -0.472616 45.5051 0 0 0
 38 1 1 0.912574 -1.53369 46.7234 0 0 0
 39 1 1 0.102503 -1.68376 48.2693 0 0 0
 40 1 1 -1.03434 -0.987333 49.413 0 0 0
 41 1 1 -1.1851 0.296173 50.6169 0 0 0
 42 1 1 -0.66302 0.985081 52.1307 0 0 0
 43 1 1 0.597629 1.21801 53.2944 0 0 0
 44 1 1 1.6033 0.38067 54.4 0 0 0
 45 1 1 1.79865 -0.43911 55.9699 0 0 0
 46 1 1 1.02918 -1.56288 57.1413 0 0 0
 47 1 1 -0.204373 -1.58199 58.3912 0 0 0
 48 1 1 -1.03897 -0.751258 59.6446 0 0 0
 49 1 1 -0.917481 0.458251 60.958 0 0 0
 50 1 1 0.0420769 1.19391 62.2706 0 0 0
 51 1 1 1.26934 1.00771 63.5708 0 0 0
 52 1 1 2.02022 0.0210905 64.8194 0 0 0
 53 1 1 1.70685 -1.15079 66.0792 0 0 0
 54 1 1 0.682342 -1.69956 67.4419 0 0 0
 55 1 1 -0.537002 -1.28159 68.6922 0 0 0
 56 1 1 -0.958142 -0.068897 69.953 0 0 0
 57 1 1 -0.36499 1.00949 71.2114 0 0 0
 58 1 1 0.799457 1.34187 72.4237 0 0 0
 59 1 1 1.74971 0.722443 73.7791 0 0 0
 60 1 1 1.94882 -0.562779 74.9362 0 0 0
 61 1 1 1.22697 -1.4741 76.2666 0 0 0
 62 1 1 0.0450817 -1.5078 77.5478 0 0 0
 63 1 1 -0.873221 -0.596846 78.7612 0 0 0
 64 1 1 -0.80658 0.786843 79.9014 0 0 0
 65 1 1 -0.0126122 1.46332 81.3526 0 0 0
 66 1 1 1.39602 1.38125 82.4388 0 0 0
 67 1 1 2.22344 0.375236 83.6199 0 0 0
 68 1 1 2.14209 -0.445713 85.173 0 0 0
 69 1 1 1.06406 -1.25055 86.301 0 0 0
 70 1 1 -0.250728 -1.0503 87.4338 0 0 0
 71 1 1 -0.817287 -0.389193 88.9375 0 0 0
 72 1 1 -0.80527 0.912212 90.1671 0 0 0
 73 1 1 0.319372 1.70757 91.2964 0 0 0
 74 1 1 1.17593 1.64583 92.7995 0 0 0
 75 1 1 2.03319 0.719609 94.097 0 0 0
 76 1 1 1.76454 -0.569116 95.3144 0 0 0
 77 1 1 1.13522 -1.04559 96.869 0 0 0
 78 1 1 -0.170099 -0.954885 98.0038 0 0 0
 79 1 1 -0.961365 0.0854451 99.1532 0 0 0
 80 1 1 -0.828675 0.890609 100.688 0 0 0
 81 1 1 0.169485 1.77272 101.825 0 0 0
 82 1 1 1.50521 1.57786 103.002 0 0 0
 83 1 1 2.0041 0.955515 104.485 0 0 0
 84 1 1 1.94142 -0.368053 105.622 0 0 0
 85 1 1 0.834756 -1.18133 106.746 0 0 0
 86 1 1 0.0143678 -1.13493 108.29 0 0 0
 87 1 1 -0.808762 -0.164734 109.527 0 0 0
 88 1 1 -0.477785 1.11399 110.686 0 0 0
 89 1 1 0.329668 1.67883 112.234 0 0 0
 90 1 1 1.62851 1.36714 113.335 0 0 0
 91 1 1 2.26312 0.298102 114.59 0 0 0
 92 1 1 2.00456 -0.4597 116.125 0 0 0
 93 1 1 0.799867 -1.20508 117.148 0 0 0
 94 1 1 0.129989 -1.10247 118.745 0 0 0
 95 1 1 -0.987989 -0.10073 119.657 0 0 0
 96 1 2 -1.4379 0.4302 121.245 0 0 0
 97 1 2 -1.3844 -0.678 122.297 0 0 0
 98 1 2 -1.7147 -0.2091 123.87 0 0 0
 99 2 3 1.75142 -0.673534 -0.0123858 0 0 0
 100 2 3 1.1241 -0.99026 1.58625 0 0 0
 101 2 3 -0.0781716 -1.69794 2.59032 0 0 0
 102 2 1 -0.625233 -1.60265 4.22589 0 0 0
 103 2 1 -1.72786 -0.655844 5.2296 0 0 0
 104 2 1 -1.72805 0.129792 6.7918 0 0 0
 105 2 1 -0.871465 1.09782 8.00442 0 0 0
 106 2 1 0.456459 1.10209 9.13301 0 0 0
 107 2 1 0.961972 0.513519 10.6866 0 0 0
 108 2 1 1.02457 -0.75645 11.903 0 0 0
 109 2 1 0.0636487 -1.61735 13.0707 0 0 0
 110 2 1 -0.806583 -1.5291 14.5832 0 0 0
 111 2 1 -1.75967 -0.58528 15.691 0 0 0
 112 2 1 -1.64433 0.692535 16.8946 0 0 0
 113 2 1 -1.04298 1.16942 18.4488 0 0 0
 114 2 1 0.288645 1.21794 19.5404 0 0 0
 115 2 1 1.2576 0.211164 20.5556 0 0 0
 116 2 1 1.3906 -0.554337 22.1292 0 0 0
 117 2 1 0.584458 -1.55434 23.3034 0 0 0
 118 2 1 -0.746242 -1.4866 24.4451 0 0 0
 119 2 1 -1.37485 -0.693199 25.8642 0 0 0
 120 2 1 -1.29019 0.609638 27.0366 0 0 0
 121 2 1 -0.18082 1.37503 28.2817 0 0 0
 122 2 1 0.887679 1.17785 29.7216 0 0 0
 123 2 1 1.56205 0.0488471 30.9084 0 0 0
 124 2 1 1.16624 -1.19063 32.1034 0 0 0
 125 2 1 0.125175 -1.68813 33.362 0 0 0
 126 2 1 -0.931063 -1.21788 34.6697 0 0 0
 127 2 1 -1.30619 -0.0177055 35.937 0 0 0
 128 2 1 -0.69252 0.997366 37.2781 0 0 0
 129 2 1 0.602418 1.26159 38.4976 0 0 0
 130 2 1 1.56815 0.38811 39.7499 0 0 0
 131 2 1 1.61153 -0.675553 41.1672 0 0 0
 132 2 1 0.692309 -1.50692 42.4025 0 0 0
 133 2 1 -0.596881 -1.45308 43.626 0 0 0
 134 2 1 -1.28774 -0.430433 44.8708 0 0 0
 135 2 1 -1.15672 0.484242 46.354 0 0 0
 136 2 1 -0.101727 1.32427 47.4659 0 0 0
 137 2 1 1.17378 0.956371 48.6425 0 0 0
 138 2 1 1.67965 0.243877 50.1686 0 0 0
 139 2 1 1.58601 -1.07036 51.2901 0 0 0
 140 2 1 0.400394 -1.72742 52.389 0 0 0
 141 2 1 -0.406571 -1.58718 53.9461 0 0 0
 142 2 1 -1.14061 -0.50807 55.1708 0 0 0
 143 2 1 -0.819079 0.671847 56.462 0 0 0
 144 2 1 0.183261 1.30675 57.7741 0 0 0
 145 2 1 1.39901 0.987974 59.0149 0 0 0
 146 2 1 1.93207 -0.1795 60.2081 0 0 0
 147 2 1 1.41518 -1.35853 61.3991 0 0 0
 148 2 1 0.338825 -1.67148 62.826 0 0 0
 149 2 1 -0.747305 -1.04752 64.0337 0 0 0
 150 2 1 -0.960108 -0.166477 65.4816 0 0 0
 151 2 1 -0.27175 0.992228 66.632 0 0 0
 152 2 1 0.903291 1.23076 67.8999 0 0 0
 153 2 1 1.93234 0.481071 69.1253 0 0 0
 154 2 1 1.9796 -0.699467 70.3498 0 0 0
 155 2 1 1.09541 -1.55779 71.6366 0 0 0
 156 2 1 -0.133384 -1.47435 72.8657 0 0 0
 157 2 1 -0.877633 -0.518121 74.1308 0 0 0
 158 2 1 -0.797579 0.651649 75.4618 0 0 0
 159 2 1 0.268032 1.36303 76.7162 0 0 0
 160 2 1 1.50697 1.04139 77.8959 0 0 0
 161 2 1 1.99026 0.115119 79.3859 0 0 0
 162 2 1 1.4846 -1.08758 80.5701 0 0 0
 163 2 1 0.275951 -1.42938 81.7746 0 0 0
 164 2 1 -0.394558 -0.958396 83.3279 0 0 0
 165 2 1 -0.775566 0.298867 84.4705 0 0 0
 166 2 1 -0.0790024 1.44718 85.5914 0 0 0
 167 2 1 0.703912 1.64467 87.1749 0 0 0
 168 2 1 1.82252 1.06073 88.3992 0 0 0
 169 2 1 2.03832 -0.277121 89.5166 0 0 0
 170 2 1 1.56182 -1.00046 91.0348 0 0 0
 171 2 1 0.298696 -1.24309 92.2057 0 0 0
 172 2 1 -0.798336 -0.407525 93.3326 0 0 0
 173 2 1 -0.972157 0.384984 94.8999 0 0 0
 174 2 1 -0.350291 1.52503 95.9912 0 0 0
 175 2 1 0.883222 1.87259 97.208 0 0 0
 176 2 1 1.59874 1.42563 98.7353 0 0 0
 177 2 1 2.05059 0.17199 99.9045 0 0 0
 178 2 1 1.45065 -0.932688 101.117 0 0 0
 179 2 1 0.568802 -1.19106 102.59 0 0 0
 180 2 1 -0.569354 -0.586006 103.717 0 0 0
 181 2 1 -0.949768 0.718702 104.816 0 0 0
 182 2 1 -0.490574 1.38814 106.408 0 0 0
 183 2 1 0.732381 1.78206 107.598 0 0 0
 184 2 1 1.91298 1.02541 108.67 0 0 0
 185 2 1 2.20872 0.205524 110.139 0 0 0
 186 2 1 1.71555 -0.930614 111.313 0 0 0
 187 2 1 0.418716 -1.26258 112.43 0 0 0
 188 2 1 -0.329063 -0.900077 113.965 0 0 0
 189 2 1 -0.799621 0.396152 115.017 0 0 0
 190 2 1 -0.139043 1.57784 116.111 0 0 0
 191 2 1 0.544552 1.81698 117.692 0 0 0
 192 2 1 1.91334 1.53757 118.666 0 0 0
 193 2 1 2.21106 0.782821 120.158 0 0 0
 194 2 2 3.4621 0.4302 121.245 0 0 0
 195 2 2 3.5156 -0.678 122.297 0 0 0
 196 2 2 3.1853 -0.2091 123.87 0 0 0

Bonds
 
       1         1         1       2
       2         1         2       3
       3         1         3       4
       4         1         4       5
       5         1         5       6
       6         1         6       7
       7         1         7       8
       8         1         8       9
       9         1         9      10
      10         1        10      11
      11         1        11      12
      12         1        12      13
      13         1        13      14
      14         1        14      15
      15         1        15      16
      16         1        16      17
      17         1        17      18
      18         1        18      19
      19         1        19      20
      20         1        20      21
      21         1        21      22
      22         1        22      23
      23         1        23      24
      24         1        24      25
      25         1        25      26
      26         1        26      27
      27         1        27      28
      28         1        28      29
      29         1        29      30
      30         1        30      31
      31         1        31      32
      32         1        32      33
      33         1        33      34
      34         1        34      35
      35         1        35      36
      36         1        36      37
      37         1        37      38
      38         1        38      39
      39         1        39      40
      40         1        40      41
      41         1        41      42
      42         1        42      43
      43         1        43      44
      44         1        44      45
      45         1        45      46
      46         1        46      47
      47         1        47      48
      48         1        48      49
      49         1        49      50
      50         1        50      51
      51         1        51      52
      52         1        52      53
      53         1        53      54
      54         1        54      55
      55         1        55      56
      56         1        56      57
      57         1        57      58
      58         1        58      59
      59         1        59      60
      60         1        60      61
      61         1        61      62
      62         1        62      63
      63         1        63      64
      64         1        64      65
      65         1        65      66
      66         1        66      67
      67         1        67      68
      68         1        68      69
      69         1        69      70
      70         1        70      71
      71         1        71      72
      72         1        72      73
      73         1        73      74
      74         1        74      75
      75         1        75      76
      76         1        76      77
      77         1        77      78
      78         1        78      79
      79         1        79      80
      80         1        80      81
      81         1        81      82
      82         1        82      83
      83         1        83      84
      84         1        84      85
      85         1        85      86
      86         1        86      87
      87         1        87      88
      88         1        88      89
      89         1        89      90
      90         1        90      91
      91         1        91      92
      92         1        92      93
      93         1        93      94
      94         1        94      95
      95         1        95      96
      96         1        96      97
      97         1        97      98
      98         1        99     100
      99         1       100     101
     100         1       101     102
     101         1       102     103
     102         1       103     104
     103         1       104     105
     104         1       105     106
     105         1       106     107
     106         1       107     108
     107         1       108     109
     108         1       109     110
     109         1       110     111
     110         1       111     112
     111         1       112     113
     112         1       113     114
     113         1       114     115
     114         1       115     116
     115         1       116     117
     116         1       117     118
     117         1       118     119
     118         1       119     120
     119         1       120     121
     120         1       121     122
     121         1       122     123
     122         1       123     124
     123         1       124     125
     124         1       125     126
     125         1       126     127
     126         1       127     128
     127         1       128     129
     128         1       129     130
     129         1       130     131
     130         1       131     132
     131         1       132     133
     132         1       133     134
     133         1       134     135
     134         1       135     136
     135         1       136     137
     136         1       137     138
     137         1       138     139
     138         1       139     140
     139         1       140     141
     140         1       141     142
     141         1       142     143
     142         1       143     144
     143         1       144     145
     144         1       145     146
     145         1       146     147
     146         1       147     148
     147         1       148     149
     148         1       149     150
     149         1       150     151
     150         1       151     152
     151         1       152     153
     152         1       153     154
     153         1       154     155
     154         1       155     156
     155         1       156     157
     156         1       157     158
     157         1       158     159
     158         1       159     160
     159         1       160     161
     160         1       161     162
     161         1       162     163
     162         1       163     164
     163         1       164     165
     164         1       165     166
     165         1       166     167
     166         1       167     168
     167         1       168     169
     168         1       169     170
     169         1       170     171
     170         1       171     172
     171         1       172     173
     172         1       173     174
     173         1       174     175
     174         1       175     176
     175         1       176     177
     176         1       177     178
     177         1       178     179
     178         1       179     180
     179         1       180     181
     180         1       181     182
     181         1       182     183
     182         1       183     184
     183         1       184     185
     184         1       185     186
     185         1       186     187
     186         1       187     188
     187         1       188     189
     188         1       189     190
     189         1       190     191
     190         1       191     192
     191         1       192     193
     192         1       193     194
     193         1       194     195
     194         1       195     196
 
Angles
 
           1           1           1           2           3
           2           1           2           3           4
           3           1           3           4           5
           4           1           4           5           6
           5           1           5           6           7
           6           1           6           7           8
           7           1           7           8           9
           8           1           8           9          10
           9           1           9          10          11
          10           1          10          11          12
          11           1          11          12          13
          12           1          12          13          14
          13           1          13          14          15
          14           1          14          15          16
          15           1          15          16          17
          16           1          16          17          18
          17           1          17          18          19
          18           1          18          19          20
          19           1          19          20          21
          20           1          20          21          22
          21           1          21          22          23
          22           1          22          23          24
          23           1          23          24          25
          24           1          24          25          26
          25           1          25          26          27
          26           1          26          27          28
          27           1          27          28          29
          28           1          28          29          30
          29           1          29          30          31
          30           1          30          31          32
          31           1          31          32          33
          32           1          32          33          34
          33           1          33          34          35
          34           1          34          35          36
          35           1          35          36          37
          36           1          36          37          38
          37           1          37          38          39
          38           1          38          39          40
          39           1          39          40          41
          40           1          40          41          42
          41           1          41          42          43
          42           1          42          43          44
          43           1          43          44          45
          44           1          44          45          46
          45           1          45          46          47
          46           1          46          47          48
          47           1          47          48          49
          48           1          48          49          50
          49           1          49          50          51
          50           1          50          51          52
          51           1          51          52          53
          52           1          52          53          54
          53           1          53          54          55
          54           1          54          55          56
          55           1          55          56          57
          56           1          56          57          58
          57           1          57          58          59
          58           1          58          59          60
          59           1          59          60          61
          60           1          60          61          62
          61           1          61          62          63
          62           1          62          63          64
          63           1          63          64          65
          64           1          64          65          66
          65           1          65          66          67
          66           1          66          67          68
          67           1          67          68          69
          68           1          68          69          70
          69           1          69          70          71
          70           1          70          71          72
          71           1          71          72          73
          72           1          72          73          74
          73           1          73          74          75
          74           1          74          75          76
          75           1          75          76          77
          76           1          76          77          78
          77           1          77          78          79
          78           1          78          79          80
          79           1          79          80          81
          80           1          80          81          82
          81           1          81          82          83
          82           1          82          83          84
          83           1          83          84          85
          84           1          84          85          86
          85           1          85          86          87
          86           1          86          87          88
          87           1          87          88          89
          88           1          88          89          90
          89           1          89          90          91
          90           1          90          91          92
          91           1          91          92          93
          92           1          92          93          94
          93           1          93          94          95
          94           1          94          95          96
          95           1          95          96          97
          96           1          96          97          98
          97           1          99         100         101
          98           1         100         101         102
          99           1         101         102         103
         100           1         102         103         104
         101           1         103         104         105
         102           1         104         105         106
         103           1         105         106         107
         104           1         106         107         108
         105           1         107         108         109
         106           1         108         109         110
         107           1         109         110         111
         108           1         110         111         112
         109           1         111         112         113
         110           1         112         113         114
         111           1         113         114         115
         112           1         114         115         116
         113           1         115         116         117
         114           1         116         117         118
         115           1         117         118         119
         116           1         118         119         120
         117           1         119         120         121
         118           1         120         121         122
         119           1         121         122         123
         120           1         122         123         124
         121           1         123         124         125
         122           1         124         125         126
         123           1         125         126         127
         124           1         126         127         128
         125           1         127         128         129
         126           1         128         129         130
         127           1         129         130         131
         128           1         130         131         132
         129           1         131         132         133
         130           1         132         133         134
         131           1         133         134         135
         132           1         134         135         136
         133           1         135         136         137
         134           1         136         137         138
         135           1         137         138         139
         136           1         138         139         140
         137           1         139         140         141
         138           1         140         141         142
         139           1         141         142         143
         140           1         142         143         144
         141           1         143         144         145
         142           1         144         145         146
         143           1         145         146         147
         144           1         146         147         148
         145           1         147         148         149
         146           1         148         149         150
         147           1         149         150         151
         148           1         150         151         152
         149           1         151         152         153
         150           1         152         153         154
         151           1         153         154         155
         152           1         154         155         156
         153           1         155         156         157
         154           1         156         157         158
         155           1         157         158         159
         156           1         158         159         160
         157           1         159         160         161
         158           1         160         161         162
         159           1         161         162         163
         160           1         162         163         164
         161           1         163         164         165
         162           1         164         165         166
         163           1         165         166         167
         164           1         166         167         168
         165           1         167         168         169
         166           1         168         169         170
         167           1         169         170         171
         168           1         170         171         172
         169           1         171         172         173
         170           1         172         173         174
         171           1         173         174         175
         172           1         174         175         176
         173           1         175         176         177
         174           1         176         177         178
         175           1         177         178         179
         176           1         178         179         180
         177           1         179         180         181
         178           1         180         181         182
         179           1         181         182         183
         180           1         182         183         184
         181           1         183         184         185
         182           1         184         185         186
         183           1         185         186         187
         184           1         186         187         188
         185           1         187         188         189
         186           1         188         189         190
         187           1         189         190         191
         188           1         190         191         192
         189           1         191         192         193
         190           1         192         193         194
         191           1         193         194         195
         192           1         194         195         196
 
Dihedrals
 
           1           1           1           2           3           4
           2           1           2           3           4           5
           3           1           3           4           5           6
           4           1           4           5           6           7
           5           1           5           6           7           8
           6           1           6           7           8           9
           7           1           7           8           9          10
           8           1           8           9          10          11
           9           1           9          10          11          12
          10           1          10          11          12          13
          11           1          11          12          13          14
          12           1          12          13          14          15
          13           1          13          14          15          16
          14           1          14          15          16          17
          15           1          15          16          17          18
          16           1          16          17          18          19
          17           1          17          18          19          20
          18           1          18          19          20          21
          19           1          19          20          21          22
          20           1          20          21          22          23
          21           1          21          22          23          24
          22           1          22          23          24          25
          23           1          23          24          25          26
          24           1          24          25          26          27
          25           1          25          26          27          28
          26           1          26          27          28          29
          27           1          27          28          29          30
          28           1          28          29          30          31
          29           1          29          30          31          32
          30           1          30          31          32          33
          31           1          31          32          33          34
          32           1          32          33          34          35
          33           1          33          34          35          36
          34           1          34          35          36          37
          35           1          35          36          37          38
          36           1          36          37          38          39
          37           1          37          38          39          40
          38           1          38          39          40          41