LAMMPS (16 Mar 2018)
# 1. INITIALIZATION
#allows pair, bond, bending and dihedral interactions
atom_style molecular

  # periodic (video game) boundaries in all cartesian directions
boundary p p s

  # uses real units (instead of units based on pair potential parameters).  List of units used in manual
units real

###########
# 2. ATOM DEFINITION
##########

   ##
   # Read in data from starting configuration file
   ##

#read_data chainconfig.dat

 #use to restart
read_restart RESTART
  orthogonal box = (-400 -400 -0.0371648) to (400 400 123.895)
  1 by 1 by 1 MPI processor grid
  196 atoms
  194 bonds
  192 angles
  190 dihedrals
  2 = max # of 1-2 neighbors
  2 = max # of 1-3 neighbors
  4 = max # of 1-4 neighbors
  6 = max # of special neighbors

   ##
   # Specify the nature of the bond interactions
   ##


bond_style harmonic
bond_coeff 1 450 1.54

special_bonds lj 0.0 0.0 0.0 angle no dihedral no

angle_style harmonic
angle_coeff 1 62.1  114.00

dihedral_style opls
dihedral_coeff * 1.4110 -0.2708 3.143 0.0

mass * 14.0

pair_style lj/cut 14.0
pair_coeff 1 1 0.0912 3.95 14.0
#pair_modify tail yes

group twistables type 3
6 atoms in group twistables
group freeze type 2
6 atoms in group freeze
fix startend freeze setforce 0.0 0.0 0.0
fix startend0 twistables setforce 0.0 0.0 0.0

################
# 3.  Simulation Settings
###############

neighbor        2.0 bin
neigh_modify    every 1 delay 0 check yes



# Define some variables
variable Lx          equal xhi-xlo   # Ang
variable Ly          equal yhi-ylo   # Ang
variable Lz          equal zhi-zlo   # Ang

variable dz          equal ${Lz}/30  # Ang
variable dz          equal 123.93194371632/30  

variable zzlo        equal zlo+0.05  # Ang
variable zzhi        equal zhi  # Ang
variable vol         equal ${Lx}*${Ly}*${Lz}  # Ang^3
variable vol         equal 800*${Ly}*${Lz}  
variable vol         equal 800*800*${Lz}  
variable vol         equal 800*800*123.93194371632  
variable TEMP        equal 300.00 # K
variable TThi        equal 320.00 # K
variable TTlo        equal 280.00 # K
variable dt          equal 1.25 # fs

timestep     ${dt}
timestep     1.25

variable zlo1      equal ${zzlo}+2.7
variable zlo1      equal 0.0128352418400019+2.7
variable zlo2      equal ${zzlo}+8.4
variable zlo2      equal 0.0128352418400019+8.4
variable zhi1      equal ${zzlo}+115.5
variable zhi1      equal 0.0128352418400019+115.5
variable zhi2      equal ${zzlo}+121
variable zhi2      equal 0.0128352418400019+121

# heat layers

region          hot  block  INF INF INF INF ${zlo1} ${zlo2}
region          hot  block  INF INF INF INF 2.71283524184 ${zlo2}
region          hot  block  INF INF INF INF 2.71283524184 8.41283524184
region          cold block INF INF INF INF ${zhi1} ${zhi2}
region          cold block INF INF INF INF 115.51283524184 ${zhi2}
region          cold block INF INF INF INF 115.51283524184 121.01283524184
compute         Thot all temp/region hot
compute         Tcold all temp/region cold


# 1st equilibration run
fix             1 all nvt temp ${TEMP} ${TEMP} 50
fix             1 all nvt temp 300 ${TEMP} 50
fix             1 all nvt temp 300 300 50
thermo          100
run             8000
Neighbor list info ...
  update every 1 steps, delay 0 steps, check yes
  max neighbors/atom: 2000, page size: 100000
  master list distance cutoff = 16
  ghost atom cutoff = 16
  binsize = 8, bins = 100 100 16
  1 neighbor lists, perpetual/occasional/extra = 1 0 0
  (1) pair lj/cut, perpetual
      attributes: half, newton on
      pair build: half/bin/newton
      stencil: half/bin/3d/newton
      bin: standard
Per MPI rank memory allocation (min/avg/max) = 9.689 | 9.689 | 9.689 Mbytes
Step Temp E_pair E_mol TotEng Press Volume 
   20000            0    2361.5478    8035.3217     10396.87    -9.355847     79316447 
   20100    214.25459    2352.5069    8001.9975    10479.042   -9.2449667     79316447 
   20200    288.56957    2309.2196    8114.8504    10591.803   -9.5365414     79316447 
   20300    311.61627    2376.9422    8036.4823    10594.554   -9.1851478     79316447 
   20400    274.09992    2315.5636    8089.7645    10564.651   -9.5207449     79316447 
   20500    328.73444    2384.6988     8036.023    10611.801   -9.1078563     79316447 
   20600    295.07963    2350.5971    8050.7303    10572.845   -9.3767927     79316447 
   20700    284.12194    2339.2767    8085.8556     10590.28   -9.4074498     79316447 
   20800    297.34306    2347.2781    8072.6536    10592.765   -9.5029107     79316447 
   20900    306.11071    2352.2402    8043.4396    10573.609   -9.4225651     79316447 
   21000     300.5324    2359.4024    8070.8407     10604.93   -9.2665388     79316447 
   21100    314.66411    2336.1703    8070.4889     10589.56   -9.4677423     79316447 
   21200    286.35215    2378.3092    8027.1659     10571.92   -9.3414016     79316447 
   21300    295.73653    2376.3414    8057.3798     10605.62    -9.328333     79316447 
   21400    273.12645    2355.5259    8065.5413    10579.824   -9.3940118     79316447 
   21500    292.69954    2359.7512     8050.964    10580.849   -9.3463399     79316447 
   21600    304.81615     2312.726    8090.5529    10580.456   -9.6355163     79316447 
   21700    298.01106    2369.7435    8051.2492    10594.214   -9.1315075     79316447 
   21800    290.59764    2334.2627    8088.3437    10591.519   -9.6129804     79316447 
   21900    296.44629    2392.5005    8015.9157    10580.728   -9.1492938     79316447 
   22000    288.44538    2354.9879     8066.624    10589.273   -9.4916464     79316447 
   22100    262.37966    2355.2478    8029.4372    10537.195   -9.3277813     79316447 
   22200    301.62793    2343.6399    8062.3004    10581.264   -9.2316506     79316447 
   22300    287.07737    2358.2006    8071.3837     10596.45   -9.3270147     79316447 
   22400    282.71388    2404.7381    8000.7904    10569.858   -9.0681459     79316447 
   22500    319.02482    2325.1652    8092.9017    10603.503   -9.6020572     79316447 
   22600    291.12895    2403.2935    8000.4636    10572.978   -9.1605902     79316447 
   22700    332.39022    2373.9359    8046.2869    10613.427    -9.291927     79316447 
   22800    294.91351    2374.7128    8034.5252    10580.659   -9.4035398     79316447 
   22900    314.01836    2349.1168    8049.5838    10581.226   -9.4554333     79316447 
   23000     308.9144    2387.5553    8038.6877    10605.802   -9.2326914     79316447 
   23100    294.66959    2296.3757    8105.1689    10572.824   -9.7957093     79316447 
   23200    311.18767    2406.5487    8023.0861    10610.515   -8.9102693     79316447 
   23300    298.07766    2351.6878    8059.8684    10584.816   -9.5559752     79316447 
   23400    302.25354    2364.4688    8044.9397    10585.096   -9.2279063     79316447 
   23500    327.35967    2352.7443    8069.9945    10613.019   -9.3761787     79316447 
   23600    292.57661    2347.2639    8061.6694    10578.996    -9.295257     79316447 
   23700    320.22908    2368.2652    8061.4626    10615.864   -9.2299221     79316447 
   23800    287.34393    2302.9981    8107.9937    10578.013   -9.6468674     79316447 
   23900    307.69049    2433.4291    7986.0741    10598.351   -8.9781689     79316447 
   24000    269.67607    2321.0188    8097.8601     10575.63   -9.6977976     79316447 
   24100    310.47865    2391.8537    8017.0477    10589.369   -9.2047488     79316447 
   24200    293.41631    2361.3841    8050.2825    10582.217   -9.5032015     79316447 
   24300    299.63635    2362.9613    8046.1515    10583.279   -9.3487861     79316447 
   24400    292.62765    2331.5209    8071.0339    10572.647   -9.5714037     79316447 
   24500    294.41451    2374.1481    8026.8996    10572.178   -9.1787408     79316447 
   24600    338.35841    2318.2353    8074.7042    10589.613   -9.5574484     79316447 
   24700    269.93816    2392.0938    7999.7467    10548.744   -9.2392673     79316447 
   24800    297.12317       2363.4    8045.4505    10581.556   -9.3781343     79316447 
   24900    301.53536    2353.2677    8057.2629      10585.8   -9.3737589     79316447 
   25000    282.13613     2356.049    8049.4443    10569.487   -9.3311888     79316447 
   25100    314.10982    2341.0842    8070.5298    10594.193   -9.3587186     79316447 
   25200    277.66544    2353.2624    8054.0677    10568.725   -9.3462976     79316447 
   25300    282.40646    2350.8202    8069.9679    10584.939   -9.2910648     79316447 
   25400    308.01868    2348.3289     8069.733      10597.1   -9.2598713     79316447 
   25500    280.13667    2362.1317     8053.698    10578.661   -9.2406281     79316447 
   25600     292.9789    2380.0961    8048.4046    10598.797   -9.2203637     79316447 
   25700    278.39447    2368.3505    8049.5707     10579.74   -9.3839357     79316447 
   25800    295.34732      2315.35     8099.678    10586.701   -9.6688157     79316447 
   25900    278.62916    2383.7904    8047.7046     10593.45   -9.0752021     79316447 
   26000    298.58946    2360.0759    8058.9735    10592.607   -9.3104108     79316447 
   26100    292.57353    2353.6667    8054.5927     10578.32   -9.5252589     79316447 
   26200    304.36695    2341.8809    8075.5402    10594.337   -9.4176364     79316447 
   26300    299.18668    2357.7071    8059.5431    10591.155   -9.2522266     79316447 
   26400    274.11508    2325.8605    8078.3294    10563.521   -9.6664884     79316447 
   26500     327.8501    2399.1437    8011.5143    10601.223   -9.0391576     79316447 
   26600    305.58871    2324.9401    8070.5512    10573.117   -9.5197878     79316447 
   26700    315.73978    2368.0054    8044.5806    10596.112    -9.252459     79316447 
   26800    283.15785    2329.3342    8099.3015    10593.223   -9.2614003     79316447 
   26900    270.41119    2322.2933    8093.7946    10573.266   -9.4846059     79316447 
   27000    311.48401    2374.9511    8052.7607    10608.764   -9.4400258     79316447 
   27100    276.95193    2355.5446    8056.6399    10573.165   -9.3674481     79316447 
   27200    341.43501    2366.2348    8037.6757    10602.372   -9.2987165     79316447 
   27300     246.8212    2360.7346    8059.8396    10564.041   -9.2203373     79316447 
   27400    262.56317    2352.3724    8081.3081    10586.297   -9.4245727     79316447 
   27500    293.89531    2334.8906    8085.5867    10591.306   -9.2864512     79316447 
   27600    286.76295    2313.1686    8082.6151    10562.467   -9.4878647     79316447 
   27700    289.87024    2371.0334     8058.696    10598.219   -9.3368178     79316447 
   27800    274.90575    2380.5236     8027.181    10567.496   -9.2039648     79316447 
   27900    333.61604    2321.9654     8083.222    10599.104   -9.5647349     79316447 
   28000     311.6658    2346.1035    8053.6764    10580.938   -9.3721644     79316447 
Loop time of 2.09 on 1 procs for 8000 steps with 196 atoms

Performance: 413.398 ns/day, 0.058 hours/ns, 3827.759 timesteps/s
100.0% CPU use with 1 MPI tasks x no OpenMP threads

MPI task timing breakdown:
Section |  min time  |  avg time  |  max time  |%varavg| %total
---------------------------------------------------------------
Pair    | 0.79239    | 0.79239    | 0.79239    |   0.0 | 37.91
Bond    | 1.2024     | 1.2024     | 1.2024     |   0.0 | 57.53
Neigh   | 0.0098133  | 0.0098133  | 0.0098133  |   0.0 |  0.47
Comm    | 0.0050061  | 0.0050061  | 0.0050061  |   0.0 |  0.24
Output  | 0.0018303  | 0.0018303  | 0.0018303  |   0.0 |  0.09
Modify  | 0.064573   | 0.064573   | 0.064573   |   0.0 |  3.09
Other   |            | 0.01399    |            |       |  0.67

Nlocal:    196 ave 196 max 196 min
Histogram: 1 0 0 0 0 0 0 0 0 0
Nghost:    0 ave 0 max 0 min
Histogram: 1 0 0 0 0 0 0 0 0 0
Neighs:    3909 ave 3909 max 3909 min
Histogram: 1 0 0 0 0 0 0 0 0 0

Total # of neighbors = 3909
Ave neighs/atom = 19.9439
Ave special neighs/atom = 5.87755
Neighbor list builds = 20
Dangerous builds = 0
velocity        all scale ${TEMP}
velocity        all scale 300
unfix           1

# Second Equilibration
fix             1 all nve
fix             hot all langevin ${TThi} ${TThi}  50.0 599804  tally yes
fix             hot all langevin 320 ${TThi}  50.0 599804  tally yes
fix             hot all langevin 320 320  50.0 599804  tally yes
fix             cold all langevin ${TTlo} ${TTlo} 50.0 27859 tally yes
fix             cold all langevin 280 ${TTlo} 50.0 27859 tally yes
fix             cold all langevin 280 280 50.0 27859 tally yes
fix_modify      hot temp Thot
fix_modify      cold temp Tcold


variable        tdiff equal c_Thot-c_Tcold
thermo_style    custom step c_Thot c_Tcold f_hot f_cold v_tdiff
thermo          4000
run             1600000
Per MPI rank memory allocation (min/avg/max) = 10.44 | 10.44 | 10.44 Mbytes
Step c_Thot c_Tcold f_hot f_cold v_tdiff 
   28000    341.07851    429.27633           -0           -0   -88.197819 
   32000    323.00874    283.62265   -29.098882    24.759701     39.38609 
   36000    326.80195    287.88459   -61.334251    54.922425    38.917368 
   40000    338.06847    266.90772   -92.979261     75.18486    71.160742 
   44000    260.92769    371.52248   -90.502099    70.270778    -110.5948 
   48000    271.78237    428.11796   -120.09465    131.50614   -156.33559 
   52000    264.21259     375.9741   -142.02192    166.26158   -111.76151 
   56000    240.28487    212.57704   -156.44618    166.63762    27.707833 
   60000    361.44608    340.14913   -173.55566    187.62098    21.296952 
   64000    499.23288    214.28388   -207.55778    219.74507    284.94899 
   68000    225.87904    417.73822    -217.2318    232.35863   -191.85917 
   72000    392.92753    193.82725    -260.6799    264.03061    199.10029 
   76000    310.58466    418.75125   -267.81097    291.54173   -108.16658 
   80000    276.69189    209.53262   -287.10553    320.11328    67.159271 
   84000    327.45705    428.70275   -305.64032    324.91476    -101.2457 
   88000    226.96995    309.93862   -321.95579    344.76852   -82.968677 
   92000    280.70337    396.30391   -331.84089    360.98695   -115.60053 
   96000    281.91289      241.114   -355.65405    379.96338    40.798898 
  100000    317.21869    439.08996   -388.14854    376.78216   -121.87127 
  104000    261.16439    252.83185   -409.86301    406.82464    8.3325414 
  108000    279.66747    575.33386   -418.19969    438.76573   -295.66639 
  112000    271.12373     312.5503   -450.02311    475.98558   -41.426571 
  116000    205.15068    175.79528   -453.81415    487.23497    29.355398 
  120000    520.82317    302.38877   -480.04099    500.26232     218.4344 
  124000    296.62573     415.9513   -509.06697    529.95959   -119.32557 
  128000    306.36178     400.0108   -506.28948    533.37134   -93.649021 
  132000    420.95626    361.77858   -542.68824    528.74228    59.177682 
  136000    448.15365    323.06979   -550.53479    555.79784    125.08387 
  140000    485.80151    488.06384   -575.51322    591.89417   -2.2623262 
  144000    224.48722    134.63018   -604.39759    595.54773    89.857036 
  148000    260.58844    430.10632   -602.98784    599.80096   -169.51788 
  152000     236.4717    239.27913   -602.55501    624.78358    -2.807431 
  156000    377.83573    318.27291   -642.84056    643.59141    59.562811 
  160000    346.76056    413.18377    -642.5867     662.4604   -66.423213 
  164000    511.32216    212.04273   -685.22046    685.54762    299.27944 
  168000    292.19042    189.06052    -710.3381    718.62256     103.1299 
  172000    287.66364    331.36861   -726.44385    729.84857    -43.70497 
  176000    330.34401    547.64362   -715.99572    747.87828   -217.29961 
  180000    339.43826    561.23099   -752.08762    782.20807   -221.79273 
  184000    319.88581    247.41819   -767.19296    782.13667    72.467621 
  188000      316.642    457.05804   -804.03708    806.48742   -140.41604 
  192000    530.75923    263.98073   -823.77117     817.3687     266.7785 
  196000    413.80135    337.74613   -858.92467    867.19549    76.055218 
  200000    232.58875    343.60255   -897.02503    896.19151   -111.01379 
  204000    345.31895     405.9634   -887.91343    900.57308   -60.644451 
  208000    551.60167    277.47751   -922.35832     916.1524    274.12416 
  212000    255.63234    536.37614   -915.88972    904.48403    -280.7438 
  216000    397.96741    471.28133   -918.48082    930.16671    -73.31392 
  220000    308.89038    351.85389   -937.71335    968.46086   -42.963502 
  224000    353.53778    313.27091   -984.02844    977.53431    40.266868 
  228000    373.60665     290.0182   -990.15504    1038.3084    83.588446 
  232000    223.62137    173.13731   -1000.8855     1035.555    50.484059 
  236000    553.67844    280.08997   -1007.2911    1051.8611    273.58847 
  240000    405.98402    300.64894   -1049.7899    1071.1675    105.33508 
  244000    246.09881    326.42124   -1073.6784    1080.6402   -80.322428 
  248000    172.56132    292.56201   -1096.3795    1094.4843   -120.00069 
  252000    485.83157    166.58015   -1139.0885    1126.6559    319.25142 
  256000     342.1421    489.12925   -1191.8973    1179.0506   -146.98715 
  260000    244.71952    327.14552   -1188.3487    1194.1393   -82.425999 
  264000    429.71082    279.71234   -1197.8047    1222.0026    149.99848 
  268000    504.42306    306.54253   -1206.6878     1222.388    197.88053 
  272000    255.69154    284.39576    -1224.389     1216.742   -28.704221 
  276000    252.80877    351.00784   -1241.9036    1270.4532   -98.199079 
  280000     300.0613     224.3108   -1266.9444    1286.4176      75.7505 
  284000    247.61372    337.07355   -1278.4108    1317.0496   -89.459824 
  288000    286.53909    157.17837    -1333.652    1351.4641    129.36073 
  292000    345.18366    199.86946    -1355.859    1360.4983     145.3142 
  296000    332.12073    279.68626   -1391.0476    1401.1824    52.434468 
  300000    280.04977     414.8178   -1423.5393    1439.5526   -134.76803 
  304000    296.84863    282.96907   -1454.9851    1476.3016    13.879567 
  308000     454.9289    485.15195   -1487.9895    1504.5221   -30.223055 
  312000    427.98938    195.80589   -1497.3661    1515.4146    232.18349 
  316000    342.27924    338.85969   -1502.1147    1520.5619    3.4195549 
  320000    325.53433    347.32867   -1548.2193    1529.2884   -21.794341 
  324000    316.61719    278.54276   -1565.2195    1572.0824    38.074424 
  328000    457.10052    358.33514   -1581.7835    1582.6907    98.765386 
  332000    538.11133    222.17495    -1597.992    1609.8598    315.93638 
  336000    423.86594    279.01749   -1595.7053    1629.7238    144.84845 
  340000    272.41625    239.11597   -1628.5395    1640.4889    33.300276 
  344000    418.65146    396.56452   -1652.6632    1669.4547    22.086938 
  348000    540.99799    138.42993   -1688.2181    1705.5835    402.56806 
  352000    344.36539    324.77839   -1703.2295    1713.0669    19.587001 
  356000     245.8135    373.41904   -1731.3498    1757.1246   -127.60553 
  360000    234.71783    274.15736   -1732.5454    1776.2753   -39.439535 
  364000     427.7741    218.04567   -1764.6906    1803.7605    209.72843 
  368000    315.36357    235.86166   -1808.0392    1823.1354    79.501914 
  372000    383.98875    255.87242   -1830.3976     1841.103    128.11633 
  376000     386.5349    506.73681   -1864.4378    1872.7622   -120.20191 
  380000    452.08011      256.191   -1898.2807    1899.3145    195.88911 
  384000    304.13581    328.04357    -1906.322    1929.6741   -23.907761 
  388000    525.97217    416.52194   -1913.9009    1915.0139    109.45022 
  392000    352.25267    228.30389   -1926.1281    1938.6964    123.94878 
  396000    305.51944    215.96082   -1959.6326    1977.8117    89.558627 
  400000    293.42068    238.60864   -1963.8769    1987.5567    54.812038 
  404000    310.45513     386.1381   -1983.9027    2006.9962   -75.682969 
  408000    410.47836    275.79071   -1992.6665    2037.3506    134.68765 
  412000    505.70414     250.1948   -2024.3285    2048.5881    255.50934 
  416000    282.89864    309.39456   -2026.9461    2056.1666   -26.495916 
  420000    449.56495    404.81112   -2084.5422     2076.091     44.75383 
  424000    342.38102    293.00022   -2096.3345    2107.8807    49.380791 
  428000    329.79788    360.94171   -2087.4508    2115.7829   -31.143826 
  432000    278.14962    289.54291   -2117.2867    2116.9999   -11.393291 
  436000     231.0982    291.61305   -2140.3371    2150.4283    -60.51485 
  440000    459.50148    319.28413    -2156.982    2166.2218    140.21736 
  444000    238.07839    378.52562   -2165.0782    2193.4084   -140.44723 
  448000    301.81931    170.41396   -2190.7319    2205.0917    131.40535 
  452000    326.30583    520.88022   -2214.2903    2230.6809   -194.57439 
  456000    582.39517    297.04495   -2216.3954    2239.1033    285.35022 
  460000    246.53778    235.79797   -2246.5284    2269.3796    10.739805 
  464000     404.5363    258.78511   -2242.9292    2263.3584    145.75119 
  468000    241.57098    188.44702   -2270.1357    2287.9457    53.123966 
  472000    405.99118    202.12429   -2320.0965    2319.0965    203.86688 
  476000    270.17229    448.77586   -2342.8185    2349.9182   -178.60356 
  480000    412.32663    353.10442   -2335.4854    2368.8082    59.222201 
  484000    171.67573    293.35859   -2353.9825    2403.8672   -121.68286 
  488000    398.51728    222.54084   -2391.0187    2405.3126    175.97643 
  492000    237.25478    350.54499   -2435.8276    2446.2753   -113.29021 
  496000    407.05127    212.83591   -2443.4446     2448.437    194.21537 
  500000    200.23219    284.76955   -2433.2768    2457.2814   -84.537358 
  504000    337.76884    618.70673   -2437.2012    2462.2363   -280.93789 
  508000    337.80469    198.87747    -2467.248    2480.5676    138.92721 
  512000    547.81306    435.53887   -2489.3298    2498.2417    112.27419 
  516000    408.00888    400.35674   -2532.0633    2508.5105    7.6521416 
  520000    580.57741    282.09833   -2522.1207    2544.0244    298.47908 
  524000    333.32311    365.18584   -2533.8356    2534.6747   -31.862735 
  528000    459.04134    339.98866    -2538.017     2554.679    119.05268 
  532000    340.98768    472.00397   -2550.8285    2576.2404   -131.01628 
  536000    360.99397    366.98834   -2563.4225    2588.1009   -5.9943615 
  540000    420.99416    520.26276     -2593.99    2599.0469   -99.268607 
  544000    254.92981    280.81222    -2605.194    2605.7498   -25.882412 
  548000     480.7314    261.23443   -2641.8764    2646.7404    219.49697 
  552000     198.3345    375.65084   -2660.4259    2668.1678   -177.31634 
  556000    490.50933    290.95254   -2694.0739    2722.5611    199.55678 
  560000    189.98696    301.38061   -2714.3707    2728.1874   -111.39366 
  564000    256.19392    277.37746   -2732.5132    2755.1452   -21.183545 
  568000    312.95857    249.03919   -2742.4705    2762.1054    63.919379 
  572000    427.42952    207.10093   -2740.0888     2768.966    220.32859 
  576000    453.50252    174.97387   -2759.3969    2798.3311    278.52865 
  580000    296.13814     306.2448   -2775.6143    2794.6127   -10.106664 
  584000      295.245    191.31373   -2798.4933    2809.1144    103.93128 
  588000    337.58111    244.05896   -2803.2907     2830.143    93.522142 
  592000    339.77484    253.32584   -2824.4348    2833.6627    86.449001 
  596000    327.90145    487.94669   -2823.4406    2828.3408   -160.04524 
  600000    284.57859    249.62639    -2840.588    2861.9776    34.952201 
  604000    417.54786    247.74902   -2883.7263    2904.1213    169.79884 
  608000    451.99301     216.4434   -2882.7603    2914.0796    235.54961 
  612000    304.45909    180.94575   -2915.1691     2898.578    123.51335 
  616000    237.54273    304.90239   -2962.5739    2954.6703   -67.359658 
  620000     613.4743    275.90782   -2975.7089    2986.1909    337.56648 
  624000    297.82298    290.69256   -2976.8545    2988.7024    7.1304158 
  628000     552.3138    356.00922   -3013.6218    2990.8345    196.30458 
  632000    382.54268    377.43438   -3013.0119    3027.0426    5.1083047 
  636000     461.5998    412.29811   -3051.5124    3064.4708    49.301693 
  640000    428.42169    212.96721   -3059.2885     3078.129    215.45449 
  644000    332.16718    148.30777   -3084.5377    3116.8077    183.85941 
  648000    292.78522    332.70923    -3108.582    3123.4129   -39.924009 
  652000    416.19195    366.61159   -3114.8912    3149.0577    49.580357 
  656000    258.32599    324.39557    -3143.494    3152.5958   -66.069576 
  660000    455.11648    199.22576   -3152.1282    3173.4852    255.89071 
  664000     359.7428    321.63304   -3195.1283    3192.0383    38.109765 
  668000    288.67813    303.18335   -3215.2749    3227.1071   -14.505218 
  672000    445.50044    284.08501   -3257.8572    3273.2789    161.41543 
  676000    535.28434    216.14077   -3303.2078    3293.7487    319.14357 
  680000    414.26599    529.45724   -3284.9035    3317.0255   -115.19124 
  684000    357.67375    408.62276   -3297.4355    3333.0094   -50.949011 
  688000    585.78028    330.46684   -3313.6563    3344.8072    255.31344 
  692000    459.56711      275.182   -3332.4203    3324.4203    184.38511 
  696000    320.40379    239.02298   -3357.7615    3366.7282    81.380811 
  700000     199.2578    298.18297   -3360.4914    3362.8581    -98.92517 
  704000    583.40257    493.18297   -3360.8639    3383.7535      90.2196 
  708000     379.6956    248.11167   -3382.4682    3399.7563    131.58394 
  712000    391.73456    522.67771   -3396.7038    3406.6157   -130.94315 
  716000    241.78924    277.47989   -3402.1514    3447.2257   -35.690644 
  720000    390.59397    254.14761   -3430.0355    3451.9992    136.44636 
  724000    273.12342    297.90465   -3459.9439    3465.2909   -24.781225 
  728000    471.01122    293.66095   -3497.8845    3499.7208    177.35026 
  732000    330.46231    330.62999   -3516.1228    3526.7171   -0.1676811 
  736000    289.00694     500.0596   -3550.1747    3538.5458   -211.05266 
  740000    372.71237    366.06518   -3551.3636    3569.3494    6.6471862 
  744000    293.02768    352.50773   -3555.5597    3585.6162   -59.480055 
  748000    389.84114    307.67672   -3614.0024    3618.4074    82.164416 
  752000    397.25052    152.35517   -3636.5547    3640.3306    244.89535 
  756000    413.83016    305.24891   -3652.9757    3654.6358    108.58125 
  760000    364.95099    286.04205   -3650.8794     3674.252    78.908938 
  764000    380.36386     199.1439   -3671.5733    3688.1438    181.21996 
  768000    287.56771    220.06306   -3691.0927    3696.6794    67.504655 
  772000    353.13865    294.85476   -3704.5028    3717.3671     58.28389 
  776000    324.86739    226.69983   -3748.5798     3749.731    98.167551 
  780000    587.25906    302.12031    -3756.089    3777.3764    285.13875 
  784000    405.16317    273.84176    -3778.155    3770.7877    131.32142 
  788000    337.76896    351.43572   -3789.3467    3797.3577   -13.666754 
  792000    354.53194    557.92171    -3819.446     3817.578   -203.38977 
  796000     285.6944    411.28328   -3837.1511    3830.2691   -125.58888 
  800000    325.26977    516.25313   -3835.3516    3825.3129   -190.98336 
  804000    236.91389      220.598   -3864.5026    3866.9931    16.315881 
  808000    393.90173    407.77557   -3869.8877    3893.7432   -13.873833 
  812000    409.46226    113.58727   -3893.1157    3907.4322      295.875 
  816000    451.65889    570.27379   -3945.1936    3955.0859    -118.6149 
  820000    580.78809    357.78789   -3972.0627    3965.6191     223.0002 
  824000    335.91009    256.77285   -3985.9298    3991.7286     79.13724 
  828000    492.97332    445.86218   -4003.8873    3993.1464    47.111145 
  832000    384.02441    235.79151   -4018.0691    4007.0743     148.2329 
  836000    296.35837    253.89913   -4027.3394    4035.1919     42.45924 
  840000    475.45467      341.469   -4056.0069     4058.376    133.98567 
  844000     339.7239    335.29285   -4072.7241    4097.0411    4.4310521 
  848000    576.74852    323.22256   -4088.2826    4108.3713    253.52597 
  852000    370.37111    329.99257   -4130.7902     4154.573    40.378533 
  856000    370.37035    263.64851   -4150.5452    4179.2237    106.72184 
  860000    427.49497    142.70822   -4175.1411    4192.0393    284.78676 
  864000    334.92327    300.28163   -4197.0468    4210.4676    34.641639 
  868000    453.07289    437.08453   -4220.3076    4218.8046    15.988355 
  872000    145.53902    431.28861   -4240.2388    4240.8311   -285.74959 
  876000    402.85248    159.45796   -4239.2926    4274.4259    243.39452 
  880000    384.12849    282.32354   -4283.8635    4305.9156    101.80495 
  884000    627.22215    266.52767   -4320.6215    4321.9683    360.69448 
  888000    324.30272    227.68388   -4331.7518    4352.7435    96.618842 
  892000    399.66028    363.90247   -4343.5966    4381.7063    35.757816 
  896000    343.81349    338.44859   -4389.2846    4402.9245    5.3648985 
  900000    210.08147    320.84807   -4395.5315    4437.4213   -110.76659 
  904000    287.12005    274.53148   -4403.1712    4421.9458    12.588571 
  908000    154.67359    274.83348   -4420.2991    4464.2012   -120.15989 
  912000    418.16979    314.21768   -4434.5687    4469.4065    103.95211 
  916000    412.05333    264.76855   -4475.7324    4487.9101    147.28478 
  920000    290.64639    310.36769   -4500.0911    4519.7901   -19.721306 
  924000    261.74874    413.51128   -4514.7955    4529.0168   -151.76254 
  928000     443.3139    198.84917   -4531.9517    4553.9394    244.46473 
  932000    554.33848     469.8419   -4541.8837    4549.0075    84.496583 
  936000    526.81195    466.36769   -4543.6267    4558.0587     60.44426 
  940000    205.79623    244.94805   -4571.8469    4599.1692   -39.151818 
  944000    411.90338    203.56479   -4601.6423    4628.2499    208.33859 
  948000    442.56242    170.79157   -4643.2145     4639.102    271.77085 
  952000    423.11235    277.96548   -4600.9104     4662.709    145.14687 
  956000    315.07283    482.02181   -4659.2304    4666.8922   -166.94897 
  960000     384.8256    281.13188   -4651.3023    4680.0587    103.69372 
  964000    609.52151    303.95324    -4687.403    4701.1701    305.56828 
  968000    475.30355     532.9866    -4713.774    4724.6019   -57.683049 
  972000      411.512    241.21047   -4733.3535    4756.5146    170.30153 
  976000    495.66894    179.81359   -4760.0647    4764.0435    315.85534 
  980000    317.90319     231.6135   -4772.4491    4762.0625    86.289691 
  984000    281.67594    550.33136   -4788.1774    4787.5427   -268.65542 
  988000    328.75746    293.52959   -4826.5908    4813.6568    35.227866 
  992000    485.22686     350.5278    -4848.037    4858.0348    134.69906 
  996000     449.8088    334.54159   -4860.6557    4875.6441    115.26722 
 1000000    383.15001    211.00163    -4861.014    4893.7746    172.14838 
 1004000    303.80177    233.26847   -4904.8681    4923.4082    70.533299 
 1008000    264.37233    375.88034   -4941.5957    4949.9357   -111.50801 
 1012000    343.77408     319.5365   -4949.6206    4994.9921    24.237577 
 1016000     300.4427    479.07985   -4983.7367    4991.5605   -178.63715 
 1020000    322.48615    296.17713   -4961.9372    4982.5938    26.309022 
 1024000    460.04536    187.40351    -5009.454    5017.9094    272.64185 
 1028000    371.43215    249.95515   -5000.5724    5019.6833      121.477 
 1032000    389.08107    295.28539   -5018.3468    5032.6577    93.795677 
 1036000     447.7691    437.35631   -5030.6334    5025.9213    10.412784 
 1040000     465.3821    304.63811   -5060.8747      5067.52    160.74398 
 1044000    366.23147     345.8428   -5077.7543    5106.2345    20.388667 
 1048000    437.53463    322.95245   -5084.6585    5098.6231    114.58218 
 1052000    443.83681    314.96164   -5112.5585    5143.5098    128.87517 
 1056000    372.22877    377.44599   -5127.9965    5149.9605   -5.2172125 
 1060000    277.80399    328.68842   -5179.3402    5190.0726    -50.88443 
 1064000    354.97114    314.99477   -5181.4408    5211.2603    39.976371 
 1068000     425.0464    168.06092   -5190.8815    5214.9912    256.98548 
 1072000    308.10124    241.94989   -5226.1059    5230.4667    66.151348 
 1076000     285.7328    269.82768   -5233.5615    5269.4423    15.905124 
 1080000    198.44829      422.437   -5252.9547    5269.8819   -223.98871 
 1084000    291.13528    308.09451   -5228.0116    5251.9812   -16.959231 
 1088000    417.51587    232.03397    -5262.232     5279.481     185.4819 
 1092000     294.6451    157.11171   -5271.6444    5292.9664    137.53339 
 1096000    365.47778    397.16272   -5303.5118    5308.5043   -31.684938 
 1100000     517.6008    259.28506   -5305.0585    5320.4444    258.31573 
 1104000    279.23888    432.95892   -5323.2487    5332.9657   -153.72005 
 1108000    273.79336    466.19028   -5358.8356    5344.9859   -192.39692 
 1112000    241.47979    410.95331   -5362.3611    5362.9185   -169.47352 
 1116000    228.22803    361.53849   -5389.9258    5384.0033   -133.31046 
 1120000     527.5754    529.84352   -5404.2453    5402.5537   -2.2681231 
 1124000    288.13118    437.13403    -5392.616    5421.5209   -149.00285 
 1128000    439.36589    333.17977   -5425.7222    5443.9545    106.18612 
 1132000    439.39175    299.77718   -5437.4083    5441.7203    139.61457 
 1136000    393.53928    265.43343   -5456.9471    5461.8133    128.10586 
 1140000    282.95697    261.62485   -5458.9772    5478.5092    21.332124 
 1144000    197.52749    322.55749   -5458.0127    5486.7614      -125.03 
 1148000     299.4529    322.38178   -5476.9355    5509.2901    -22.92888 
 1152000    265.09838    345.72911   -5498.5043     5538.736   -80.630732 
 1156000    368.74201    349.50948   -5531.8454    5558.7374    19.232527 
 1160000    475.03426    292.13817   -5555.6015    5566.3339    182.89608 
 1164000    304.97357     321.1718    -5567.703    5584.1226   -16.198235 
 1168000    500.45095    437.93455   -5577.9549     5586.512    62.516401 
 1172000    459.72715    502.32777   -5614.8663    5587.7717   -42.600621 
 1176000    191.40782    313.96535   -5611.2094    5626.6342   -122.55753 
 1180000    280.08765    255.23949   -5625.7738    5643.8136    24.848155 
 1184000     231.4353    295.78325   -5642.5545    5672.0569    -64.34795 
 1188000    327.33181    340.36441   -5669.0001    5692.8696   -13.032596 
 1192000    504.86995    309.72046   -5686.4736    5711.0412    195.14949 
 1196000    304.04192    459.55713   -5697.7312    5718.5586   -155.51521 
 1200000    401.17186    300.91341   -5731.3555    5737.3675    100.25845 
 1204000    451.99878    315.57942   -5746.9989    5762.7335    136.41936 
 1208000    432.56722    228.32674   -5735.3929    5767.6005    204.24048 
 1212000    207.70114    245.03681   -5788.2461    5782.7512   -37.335676 
 1216000    455.33298    411.12065   -5800.2316    5806.0639    44.212329 
 1220000    402.37396    212.97106   -5825.4596    5846.6995     189.4029 
 1224000    345.28487    416.61126   -5839.5193    5860.6321   -71.326389 
 1228000    434.34875    247.46613   -5870.8843    5878.1541    186.88261 
 1232000    420.37283    246.56989   -5867.7933    5869.7582    173.80295 
 1236000    365.96508    566.79534   -5864.7827     5870.695   -200.83026 
 1240000     208.1288    165.05452   -5862.4126    5869.1934    43.074283 
 1244000    350.49952    199.55583   -5871.2389    5859.6038    150.94369 
 1248000      481.104    279.94261   -5885.2123    5885.5485     201.1614 
 1252000    415.48138     253.1172   -5868.1387    5881.0285    162.36418 
 1256000    436.27146    146.84471   -5892.3893    5921.5539    289.42675 
 1260000     423.7532    322.62919   -5921.2712    5944.4691    101.12401 
 1264000    279.85916    324.66867   -5913.0084    5949.8039   -44.809509 
 1268000    302.72252    281.88318   -5939.7783    5966.4218    20.839337 
 1272000    374.18108    374.17015   -5943.1608    5970.2931  0.010927475 
 1276000    221.52761    223.03164   -5977.7017    5985.2116   -1.5040381 
 1280000     630.5384    304.94528   -6019.9006    5998.7244    325.59312 
 1284000    482.44735    336.23838   -6039.5095    6050.2928    146.20896 
 1288000    304.35414    376.71908   -6046.4721    6068.2545    -72.36494 
 1292000    277.69265    353.20568   -6072.8316    6106.9245   -75.513032 
 1296000    290.92612    197.64318   -6084.9569    6121.2958    93.282941 
 1300000    411.48474    187.23707   -6117.7864    6143.2724    224.24767 
 1304000    407.08882    368.37456   -6136.9755    6165.9426    38.714261 
 1308000    248.35742    398.75141   -6126.8543    6157.7183     -150.394 
 1312000    214.16858    368.45848   -6151.1008    6175.2364   -154.28989 
 1316000    430.71063     138.8346   -6159.6102    6168.2931    291.87603 
 1320000    401.84442    450.53273   -6147.3659    6176.3348   -48.688318 
 1324000    446.73861    289.33846   -6170.5772     6176.151    157.40015 
 1328000     408.4751     198.7098   -6207.9551    6194.5534    209.76529 
 1332000    376.36512    245.67371   -6219.4777    6229.6885    130.69141 
 1336000    457.43773    232.60667   -6209.6541    6252.4272    224.83106 
 1340000    267.39015    360.11627   -6221.9681    6236.1786   -92.726122 
 1344000    595.84929    358.67239   -6248.4415    6260.5857     237.1769 
 1348000     523.8076    251.15939   -6277.0926     6286.344     272.6482 
 1352000    221.08005    228.43208   -6266.1802    6312.5496   -7.3520372 
 1356000    414.63784    322.70133   -6293.3286    6328.9261    91.936503 
 1360000      427.921    425.31536   -6333.2741    6335.2209    2.6056399 
 1364000    306.62483    226.45284   -6358.5495    6362.1185    80.171987 
 1368000    219.76461    507.54522   -6371.7693    6375.9311   -287.78061 
 1372000    436.87274    266.29347   -6368.2047    6416.1373    170.57927 
 1376000    326.86583    440.19632   -6408.1051    6410.5217   -113.33049 
 1380000    184.58577    274.19707   -6427.6845    6420.2289   -89.611301 
 1384000    393.80769    256.93451   -6440.5873    6439.1668    136.87317 
 1388000     381.1976    275.42696   -6428.3472    6454.6697    105.77064 
 1392000    153.68798     367.5699   -6444.4564    6485.9378   -213.88192 
 1396000    315.34485    228.62167   -6478.7342    6494.2491    86.723179 
 1400000    319.06804    238.58128   -6480.7051    6502.3474     80.48676 
 1404000    433.39349    269.75283   -6510.8627    6528.5078    163.64066 
 1408000    419.36872    357.59819   -6525.9416    6543.6422    61.770532 
 1412000    189.65693    263.42904   -6554.2319    6566.8672    -73.77211 
 1416000    417.58082    284.90708   -6580.8875    6611.3776    132.67375 
 1420000     391.6088    247.53419   -6613.6073    6633.6652    144.07461 
 1424000    339.71369    444.59597   -6633.0821    6638.5496   -104.88228 
 1428000    314.91053    303.22899   -6657.4455    6663.5435    11.681539 
 1432000    615.95054    564.90382   -6681.5441    6689.4994    51.046718 
 1436000    442.62711    237.42337   -6709.5105    6733.2039    205.20374 
 1440000    242.61808    205.61225   -6714.8705    6728.6172    37.005831 
 1444000    416.79793    286.25812   -6731.8473    6762.9067    130.53981 
 1448000    406.49161    163.17806    -6752.291    6776.4499    243.31355 
 1452000    527.91946    244.42312   -6783.8706    6799.7665    283.49634 
 1456000    232.74792    142.10395   -6783.4582    6807.3737    90.643973 
 1460000    496.41591    391.81019    -6802.791    6807.9795    104.60573 
 1464000    292.02749    411.33738   -6817.9157    6821.8204   -119.30989 
 1468000    205.69193    291.68756   -6838.3013    6850.9037   -85.995635 
 1472000    260.35271    270.72121   -6864.4211     6870.901   -10.368501 
 1476000    462.28549    294.01199   -6885.1983    6900.5311     168.2735 
 1480000    316.90471    136.61546   -6895.5305    6921.4848    180.28924 
 1484000     356.9521    461.54236   -6934.0474     6938.325   -104.59027 
 1488000    317.34034    282.21938   -6971.3525    6996.7769     35.12096 
 1492000     335.2161    454.17346   -6987.2902    7005.7253   -118.95737 
 1496000    408.29744    536.85928   -7006.6745    7015.4332   -128.56184 
 1500000    358.95296    252.56317   -7034.4521    7037.7438     106.3898 
 1504000    347.28482    423.20146   -7016.6202    7049.1873   -75.916643 
 1508000    425.77847    239.28429   -7041.7629    7055.4832    186.49418 
 1512000    426.38893    185.02695    -7039.233    7108.0527    241.36199 
 1516000    312.49812    416.65072   -7090.2836    7114.0415   -104.15259 
 1520000     410.4719    299.98507   -7125.2098    7144.7343    110.48683 
 1524000    335.86341    308.62182   -7147.2422    7175.3944    27.241591 
 1528000    278.42815    304.61969   -7155.8153    7183.8453   -26.191538 
 1532000    476.41399    265.11408   -7191.8281    7221.1965     211.2999 
 1536000    293.64067    268.33417   -7208.3749    7226.3777    25.306494 
 1540000    334.20437    429.23211   -7258.1836    7259.4384   -95.027743 
 1544000    246.96961    330.27692   -7251.8598    7271.4156   -83.307311 
 1548000    239.75643    229.69231   -7288.3683    7296.7119    10.064125 
 1552000    452.93861    231.30086   -7270.8971    7307.2936    221.63775 
 1556000    336.13166    379.47001     -7285.39    7308.8297    -43.33835 
 1560000     333.5848    399.76029   -7306.2073    7322.4144   -66.175494 
 1564000    329.68866    160.35021   -7325.1555    7359.7913    169.33845 
 1568000    243.24242    597.20543   -7338.2472     7349.648   -353.96301 
 1572000    382.79553    225.18163   -7358.2938    7386.4409     157.6139 
 1576000    366.09425    289.65867   -7367.3928    7392.3427    76.435583 
 1580000    373.28305    290.90977    -7364.768    7392.3906    82.373282 
 1584000    434.97797    337.69947   -7424.1512    7443.3657      97.2785 
 1588000    494.34154    289.38006    -7444.608    7472.6412    204.96148 
 1592000    226.01825    405.02088   -7448.0119    7483.5685   -179.00262 
 1596000    312.01626    273.61164     -7490.28    7518.4678    38.404614 
 1600000    338.66409    291.04837   -7515.8724     7525.613    47.615725 
 1604000    375.49101     374.1278   -7541.9698    7546.2771    1.3632022 
 1608000     190.8296    414.33008   -7565.2621    7579.4697   -223.50048 
 1612000     396.3926    393.70212   -7605.9595    7598.7985    2.6904755 
 1616000    466.81874    324.53102   -7633.4735    7643.4887    142.28772 
 1620000     367.4614    473.30115   -7642.2353     7654.442   -105.83975 
 1624000    356.06644    424.13595   -7655.7232    7677.4202   -68.069507 
 1628000    320.67436    425.64451   -7667.8353    7695.2193   -104.97015 
Loop time of 507.317 on 1 procs for 1600000 steps with 196 atoms

Performance: 340.615 ns/day, 0.070 hours/ns, 3153.845 timesteps/s
100.0% CPU use with 1 MPI tasks x no OpenMP threads

MPI task timing breakdown:
Section |  min time  |  avg time  |  max time  |%varavg| %total
---------------------------------------------------------------
Pair    | 161.87     | 161.87     | 161.87     |   0.0 | 31.91
Bond    | 246.28     | 246.28     | 246.28     |   0.0 | 48.55
Neigh   | 2.5228     | 2.5228     | 2.5228     |   0.0 |  0.50
Comm    | 1.0908     | 1.0908     | 1.0908     |   0.0 |  0.22
Output  | 0.015028   | 0.015028   | 0.015028   |   0.0 |  0.00
Modify  | 92.626     | 92.626     | 92.626     |   0.0 | 18.26
Other   |            | 2.91       |            |       |  0.57

Nlocal:    196 ave 196 max 196 min
Histogram: 1 0 0 0 0 0 0 0 0 0
Nghost:    0 ave 0 max 0 min
Histogram: 1 0 0 0 0 0 0 0 0 0
Neighs:    3917 ave 3917 max 3917 min
Histogram: 1 0 0 0 0 0 0 0 0 0

Total # of neighbors = 3917
Ave neighs/atom = 19.9847
Ave special neighs/atom = 5.87755
Neighbor list builds = 5265
Dangerous builds = 0
unfix 1


# PRODUCTION

fix             1 all nve
fix             hot all langevin ${TThi} ${TThi}  50.0 52804  tally yes
fix             hot all langevin 320 ${TThi}  50.0 52804  tally yes
fix             hot all langevin 320 320  50.0 52804  tally yes
fix             cold all langevin ${TTlo} ${TTlo} 50.0 297859 tally yes
fix             cold all langevin 280 ${TTlo} 50.0 297859 tally yes
fix             cold all langevin 280 280 50.0 297859 tally yes
fix_modify      hot temp Thot
fix_modify      cold temp Tcold


variable        tdiff equal c_Thot-c_Tcold
thermo          4000

dump gigo all atom 40000 dump.cords_xyz.dat
dump_modify gigo scale no
dump vfgigo all custom 4000 dump.velo.dat id vx vy vz fx fy fz

# thermal conductivity calculation
# # reset langevin thermostats to zero energy accumulation
#
compute         ke all ke/atom
variable        temp atom c_ke/1.5/0.0019872

fix             ave all ave/time 100 40 4000 v_tdiff ave running
thermo_style    custom step temp c_Thot c_Tcold f_hot f_cold v_tdiff f_ave

#compute         layers all chunk/atom bin/1d z lower 0.05 units reduced
compute         layers all chunk/atom bin/1d z lower ${dz} units box
compute         layers all chunk/atom bin/1d z lower 4.131064790544 units box
fix             2 all ave/chunk  100 40 4000 layers v_temp file profile.langevin

dump mydump2 all xyz 40000 prod-coord.xyz
dump_modify mydump2 element C S S

run             32000000
Per MPI rank memory allocation (min/avg/max) = 11.82 | 11.82 | 11.82 Mbytes
Step Temp c_Thot c_Tcold f_hot f_cold v_tdiff f_ave 
 1628000    296.03568    320.67436    425.64451           -0           -0   -104.97015            0 
 1632000    275.94602     645.4079    315.60762   -29.280431    10.689746    329.80028    40.558468 
 1636000    273.62225    281.43613    262.22329   -36.482201     26.28074    19.212834    43.191911 
 1640000    277.41224    271.78706    318.17122   -51.163553    39.063752   -46.384163    39.126735 
 1644000    278.97233    260.69781    487.67209   -74.488122     57.41481   -226.97428    39.061906 
 1648000    303.35662    350.60772    337.16157   -93.590295    92.847913    13.446145    38.598474 
 1652000    297.45253    345.03635    471.07022   -105.46594    109.76153   -126.03387       44.143 
 1656000    286.37232    257.61456    264.73104   -149.70197    134.76796   -7.1164805    44.505185 
 1660000    292.11242    589.81419    372.86058   -148.70524    146.90807    216.95361    42.635958 
 1664000    266.09646    455.34204    243.76198   -158.76298    166.76301    211.58006    44.031213 
 1668000    259.14159    333.50361    301.27782   -162.93952    170.27946    32.225782    43.470759 
 1672000    301.60077    527.14416    266.70593   -181.51488    171.49954    260.43823    41.343988 
 1676000    265.30847    224.76852    209.23652   -175.31215    173.37868    15.531992    39.994508 
 1680000    294.56116    289.56165    221.73267   -192.48433    183.55344    67.828983     38.63587 
 1684000    284.59369    538.91753    216.39001   -215.16109    194.58389    322.52752    37.737244 
 1688000    268.24115    304.63535    471.09789   -248.71877    245.47828   -166.46254    35.796008 
 1692000    296.48259    392.82884    470.48554   -272.73488    261.86415     -77.6567    35.597479 
 1696000    267.92344    215.16477    352.23366   -262.86303    286.06147   -137.06889     37.69978 
 1700000    291.53834    367.91571    488.82886   -296.08409    286.76355   -120.91315    38.411301 
 1704000    253.98133    253.86155    290.52663   -303.97819    294.95776   -36.665078    39.500627 
 1708000    282.91697    386.81957    316.08986   -305.55866    298.04762     70.72971    39.199048 
 1712000    258.50469      347.613    341.16364   -321.50597    330.99849    6.4493625     37.16344 
 1716000    275.17312    567.14874    190.58228   -336.54534    363.36988    376.56646    36.910593 
 1720000    285.38957    369.88753    359.25436   -340.80125     343.8945    10.633166    36.051923 
 1724000     303.5269    480.61607    200.70046   -345.88008    336.11961    279.91562    36.682616 
 1728000     299.0864    318.52232    326.45604   -356.30583    342.98348   -7.9337182    36.143114 
 1732000    303.84657    480.07468    274.66303   -383.66628    371.44611    205.41165    36.596389 
 1736000    287.64088    473.33737    282.74118   -415.08417    404.08036     190.5962     36.60359 
 1740000    307.11964    404.89227    229.96229   -447.68143    411.68612    174.92998     37.34489 
 1744000     297.8362    188.18727    212.51788   -439.15178    424.65827    -24.33061    37.544331 
 1748000     272.5005    469.66131    248.42427   -468.46297    478.57559    221.23703    37.884025 
 1752000    277.56714    317.80279    232.99034    -469.9853    475.44882    84.812453     37.03243 
 1756000    276.34496    372.90955    295.80482   -505.92574    507.22881    77.104727    37.441537 
 1760000    283.72862    249.55823    172.14775   -519.39242    522.03187    77.410479    37.494092 
 1764000    270.45117    438.54107    231.22258   -546.05724    555.11693    207.31849    38.919654 
 1768000    287.58721    442.71309    505.71973   -581.11791    575.46957   -63.006636    38.507028 
 1772000    285.97239    278.30449    596.04751   -616.33088    600.88339   -317.74302     37.93886 
 1776000    290.59947    330.20087    252.01388   -625.98523     599.8523    78.186991    37.905149 
 1780000    274.08248    291.15756    319.67757   -636.18341    627.27091   -28.520001    37.191538 
 1784000    285.63326    351.28172    162.72269    -656.4005    649.37491    188.55902    37.249767 
 1788000    314.03085    300.87275    231.35557   -680.82613    649.67274     69.51718    37.922891 
 1792000    271.34505    325.82994     306.2732   -701.57784    693.51323    19.556741    38.284465 
 1796000    314.26764    334.99566    358.77694   -723.19422    704.30197   -23.781278    36.909005 
 1800000     285.7274    333.37161    239.34723   -747.69735    742.03655    94.024379    37.888027 
 1804000    330.83177    200.66204    345.97462   -779.41669    740.77985   -145.31258    37.366007 
 1808000    268.43014    283.08974    486.60427   -764.93705    767.32442   -203.51453    37.522261 
 1812000    290.13277    322.79655    250.97947   -794.90602    790.08026    71.817077    38.001212 
 1816000    288.62724    225.80873    365.76189   -823.56659     805.3792   -139.95315    37.823771 
 1820000    271.52138    358.92328    231.24945   -849.13355    821.54917    127.67383    37.890047 
 1824000    293.89133    215.02058    447.70297   -859.22673    849.28459   -232.68239    37.447511 
 1828000    305.62535    199.30398    435.30101   -887.82812    851.83277   -235.99703    37.811123 
 1832000     326.4475    596.65742    218.38708   -907.90833    871.98095    378.27034    37.727813 
 1836000    299.97365    347.95202    240.58888   -920.38753    911.21515    107.36314    37.446907 
 1840000    278.20705    343.74691    370.09428   -937.23265    937.46308   -26.347374    37.605026 
 1844000    283.99377     462.4193    228.20576   -967.01415    950.04053    234.21354    37.846017 
 1848000    243.27301    372.42593    359.67674   -962.28034     981.2888    12.749184    38.062772 
 1852000    280.87116    486.94261    278.42646   -991.83859    981.01944    208.51615    37.595377 
 1856000    266.67047    345.65004    254.20393   -986.07565    984.64011    91.446111    37.298136 
 1860000    286.40346    259.04245    410.41539   -979.25048    981.45934   -151.37294    37.208327 
 1864000    277.02308    328.00832    355.45783   -983.77318    976.22867   -27.449513    36.998477 
 1868000    308.85946     543.2254    406.04848   -1000.9356    997.84097    137.17692    37.168209 
 1872000    287.87578    208.67512    317.63179   -1033.6292    1016.6764   -108.95667    37.135443 
 1876000    285.46841    607.98368    357.97689   -1029.3241     1039.064     250.0068    37.121647 
 1880000    292.70748      427.626     346.6354   -1041.5344    1023.2596    80.990602    37.130009 
 1884000    290.32341    356.16316    481.17762    -1052.013    1028.3264   -125.01447    37.329985 
 1888000    286.46847    350.05082    250.15383   -1061.7624    1052.2981    99.896987    37.490492 
 1892000    286.90037    307.16735    375.78835   -1089.1717    1077.0436   -68.621007    37.593299 
 1896000    272.14988    429.92266    217.78806   -1123.8087    1091.1162     212.1346    37.580586 
 1900000    305.33631    313.49411    328.09643    -1137.651    1117.8614   -14.602325    37.673191 
 1904000    284.86992    231.27727    207.37935   -1178.7303    1163.5265    23.897917    37.207263 
 1908000     303.0897    374.34097    282.20779   -1183.8014     1175.938    92.133185     37.34352 
 1912000     310.0694    389.98476    318.47934   -1177.6501    1154.1733    71.505414     37.59539 
 1916000    303.42322    286.44707    325.61876   -1190.4912     1159.772   -39.171685    37.256323 
 1920000    308.91622    298.50993     370.3047   -1195.1216    1182.7679   -71.794773    37.434029 
 1924000    269.65955    301.14455    168.03039   -1205.7607     1210.182    133.11416    37.229761 
 1928000    307.89657    362.28307    339.13883   -1223.0938    1204.0407    23.144236    36.995159 
 1932000    274.73834    307.54926    332.42611    -1258.645    1240.4315   -24.876854    37.568104 
 1936000    272.90405    148.69284    295.05726   -1230.2366    1242.1279   -146.36442    37.453685 
 1940000    300.85705    277.25494    406.45487   -1265.1477     1243.006   -129.19993    37.774591 
 1944000    299.49193    381.97667    239.99506   -1289.7264    1261.6263    141.98161     38.16963 
 1948000     276.9234    482.37326    513.64664   -1299.5567    1296.6927   -31.273382    38.179614 
 1952000    277.74737    274.70218    329.62958   -1327.1256    1308.0884     -54.9274    38.969722 
 1956000    276.46292    274.18581    300.67409   -1340.4965    1343.6514   -26.488283    38.731959 
 1960000    303.07529    472.22553    339.04407   -1368.9089    1356.3987    133.18146    38.939409 
 1964000    298.31732    272.79899    413.98969   -1383.3108    1378.6824    -141.1907    38.897191 
 1968000    262.72197     392.6492    269.15093   -1407.0216    1409.9729    123.49827     38.72901 
 1972000      301.123    230.94385     527.7739   -1419.9546    1406.9362   -296.83005    38.612154 
 1976000    274.95257    258.88406    219.72675    -1442.411    1430.4028    39.157308    38.863213 
 1980000    263.20788    348.82122    345.28665   -1455.0668    1467.3183    3.5345655    38.908151 
 1984000    277.08777    449.71372    328.93679   -1466.3355    1470.1422    120.77692    39.124636 
 1988000    308.83635    559.08164    188.60187    -1465.507    1466.9563    370.47976    39.210085 
 1992000    299.59676    308.82218    256.24233   -1458.7513    1456.7836    52.579846    38.745758 
 1996000    269.55434    311.80204    374.78472   -1504.4451    1472.9652   -62.982678    38.360968 
 2000000    274.99569    409.53403    291.87239   -1546.0669    1553.2017    117.66165    38.803245 
 2004000    264.46122    366.10684    245.74456   -1569.1417    1563.7553    120.36227    38.931388 
 2008000    264.00814    296.08213    247.82361   -1575.6076    1583.2258    48.258517    38.882846 
 2012000    312.01972    577.11665    309.67215   -1615.7967    1592.6622     267.4445    38.938301 
 2016000    260.84663    282.57823    303.96036   -1587.5159    1591.6408   -21.382132    38.896055 
 2020000    269.85286     332.5494    223.86518   -1609.9202    1616.3636    108.68423    38.870918 
 2024000    343.70776    444.34982    315.86471   -1648.7452    1608.1971    128.48511    38.904064 
 2028000      289.689    352.93616    411.66498   -1636.5176    1625.5433   -58.728821    38.677344 
 2032000    295.51071    472.82206    514.62745   -1650.8969    1643.0053   -41.805388    38.894515 
 2036000    267.72495    430.02599    293.62896   -1674.1706    1653.9216    136.39703    39.032704 
 2040000    279.22405    502.59412    387.09257   -1685.0754    1682.7104    115.50155    39.154265 
 2044000    254.02891     372.3455     196.0227   -1687.6666    1700.4377     176.3228    39.166645 
 2048000     293.2746    385.58826    420.54468   -1708.3122     1717.737   -34.956423    38.931162 
 2052000    269.52349    404.20516    303.28384   -1730.8679    1752.0856    100.92132    38.897788 
 2056000    284.39972    505.12509    308.27326   -1780.5218     1776.942    196.85183    39.129867 
 2060000    288.38631    323.80997    316.30127   -1832.5157     1804.714    7.5087037    39.229646 
 2064000    290.01347    444.37252    353.54834   -1830.9754    1820.1921     90.82418    39.309753 
 2068000    256.51714     324.1135    267.68286   -1834.7149    1843.5329    56.430646     39.07103 
 2072000    283.90319     462.6741    391.51081    -1873.507    1860.7927    71.163291    38.935515 
 2076000    262.89305    280.78853    352.26668   -1884.5648    1886.5129   -71.478149    39.000055 
 2080000    269.74854    155.63926    184.66127   -1901.1904    1915.1102   -29.022008    39.113583 
 2084000    271.18788    332.41781    364.66425   -1935.3371    1948.0937   -32.246445    38.892587 
 2088000     288.6768    530.54733    184.19074   -1953.3639    1948.2408    346.35659    38.769358 
 2092000    268.61053    401.91235    206.52735   -1974.1066    1988.4774      195.385    38.626041 
 2096000    275.31838    210.86087    379.62596   -2004.7263     1995.563   -168.76508    38.469521 
 2100000    286.98069     250.6528    271.15608   -2040.3883    2052.2606   -20.503277    38.469972 
 2104000    286.30719    404.48945    377.25004   -2067.4825    2070.6067     27.23941    38.477981 
 2108000    287.35088     292.3986    294.61521   -2083.1737    2089.4526   -2.2166033    38.276732 
 2112000    305.99477     346.5079    504.76244   -2115.0955    2109.5272   -158.25454     38.13041 
 2116000    281.94621    335.92725    201.40006   -2149.8638    2143.8648    134.52718    38.046317 
 2120000    280.05548    355.25476    278.17672   -2165.5949     2151.062    77.078034    37.976183 
 2124000    295.19199    348.32627    434.17991   -2187.1829    2187.6651   -85.853646    38.238923 
 2128000    310.62894    235.47785    345.46707   -2216.3451    2215.5094   -109.98922    38.231445 
 2132000    283.29888    459.00561    406.39229   -2269.2942    2249.3685    52.613319    38.368805 
 2136000     273.0188    321.00184    181.09056   -2298.8517    2287.8407    139.91128     38.43143 
 2140000    266.56949      224.104    320.75514   -2336.5586     2349.601   -96.651143    38.282723 
 2144000    287.63925    351.98922    411.27453   -2370.4878    2343.3487   -59.285311     38.22984 
 2148000    287.58756    270.58313    508.30172    -2378.299    2369.3356   -237.71859    38.004622 
 2152000     240.6547    266.67804    262.76549    -2384.028    2411.6852      3.91255    38.117938 
 2156000    281.31054     313.6325    236.70415   -2406.6206    2393.4997    76.928349     38.19611 
 2160000    262.02918    385.50561    229.78284   -2413.5713    2430.1525    155.72278    38.149482 
 2164000    249.18519    272.52743    214.00148   -2412.4212    2448.4694     58.52595    38.313084 
 2168000    303.48238    332.78596    552.19934   -2431.9226    2428.2707   -219.41338    38.395117 
 2172000    277.50684    319.47623    363.68918   -2462.8769    2470.4028   -44.212951    38.303308 
 2176000    281.32406     192.0541    458.20854   -2512.1044    2502.3721   -266.15444    38.511936 
 2180000    304.82442    264.85532    324.13231   -2521.4815    2492.9046   -59.276991    38.331083 
 2184000    292.19091    435.79092     490.4627   -2526.3334    2526.8151   -54.671779    38.121281 
 2188000    273.08085    314.75964    317.42377   -2549.8959    2535.6397   -2.6641316     38.17982 
 2192000    275.40575    360.20208    299.09727   -2557.5876    2550.4436    61.104812    38.251079 
 2196000    284.23894    313.82199    363.69571   -2571.7671    2577.8873   -49.873722     38.12958 
 2200000    282.79397      581.289    205.08065   -2601.7719     2591.515    376.20834    38.126302 
 2204000    289.85767    366.92803    277.14469   -2617.4692    2599.8289    89.783341    37.886768 
 2208000    291.16579    263.05339    308.15975   -2647.1464    2637.1772   -45.106368    37.611956 
 2212000    272.72945    279.70855    180.69676   -2643.0111    2642.4289    99.011788    37.724299 
 2216000    296.37052    327.55009      287.257   -2649.1716    2652.5318     40.29309    37.787197 
 2220000     266.5602    358.70952    340.86831    -2658.594     2671.646    17.841207    37.795351 
 2224000    287.20262    234.32369    379.62689   -2675.8514    2678.7993    -145.3032    37.482032 
 2228000    307.65572    385.67827    249.80741   -2719.9422    2716.7081    135.87087    37.438425 
 2232000    286.33136    236.88834    462.61878    -2751.589    2730.7526   -225.73044    37.430109 
 2236000    284.43301    295.75497    249.37758    -2767.336    2763.7404     46.37739    37.506919 
 2240000    302.19522    289.78498    229.67121     -2811.68    2788.1643    60.113766    37.530128 
 2244000    260.31011     425.1564    264.99889   -2808.6689    2806.2608    160.15751    37.500386 
 2248000    262.95454    353.78554     226.5142   -2812.8837    2815.4621    127.27133    37.551271 
 2252000    288.96665    530.86709    367.30896   -2825.9197    2820.3001    163.55813    37.756421 
 2256000    301.42387    422.28865    337.77026   -2859.8136    2850.5276    84.518386    37.818496 
 2260000    282.80407    253.02294    342.34188   -2855.9693    2858.6632   -89.318938    37.838637 
 2264000    265.00315    412.57882    367.60702   -2908.5727    2895.6581    44.971802    37.960886 
 2268000    281.86869    379.52982    300.67043   -2896.3944     2889.852    78.859394    38.026752 
 2272000    298.04095    399.65582    155.20693   -2936.2947    2912.8456    244.44889    38.051301 
 2276000    280.13524    257.56554    407.80279   -2918.6034      2912.17   -150.23725    37.921148 
 2280000    291.42308    216.66766    345.06994   -2956.5015    2931.2938   -128.40228    37.929826 
 2284000    286.01909    699.43295    368.54854   -2984.5704    2981.9994    330.88441    38.236809 
 2288000    306.54144    511.00071    286.30443     -3000.39    2998.3983    224.69628    38.217549 
 2292000    295.04172     568.6335    272.67778    -3039.141    3039.1443    295.95572    38.199495 
 2296000    304.29324    758.25259    266.89918   -3059.1049    3037.6056    491.35342    38.511829 
 2300000    320.86159    521.19641    362.59975   -3093.8144    3051.3507    158.59666     38.61469 
 2304000    290.16133    395.16799    260.17887   -3089.5762    3070.7514    134.98912    38.604609 
 2308000    304.16444    329.41406    757.20701   -3114.6139    3104.1422   -427.79296    38.372038 
 2312000    272.91414    395.12234    204.33819   -3116.5751    3114.4918    190.78414    38.564289 
 2316000    291.67499    406.40251    219.70282   -3117.0339    3126.2485    186.69969    38.594389 
 2320000    304.34058    260.58131    324.38942   -3153.4828    3137.1056   -63.808104    38.552492 
 2324000    302.26635    365.40715    512.67805   -3177.5658     3148.902    -147.2709    38.548689 
 2328000    282.45351    327.18787    262.27286   -3175.6336    3166.7129    64.915016    38.519276 
 2332000    270.64337    346.54181     340.7246   -3192.9281    3200.1257    5.8172108    38.578706 
 2336000    275.62908    319.10801    242.08673    -3219.161    3226.4434     77.02128    38.690734 
 2340000     273.4276    422.86525     452.2676   -3249.8928    3258.0595   -29.402341    38.352427 
 2344000    287.04161    239.24278    290.98007   -3291.1342    3288.8135   -51.737299    38.501503 
 2348000    257.27153    427.41694    372.75799   -3286.7619     3304.646    54.658947    38.611448 
 2352000    279.27535    377.93796    280.64657   -3302.9264    3307.5151    97.291392    38.741543 
 2356000    274.95861    319.93932    532.17786   -3338.4712    3344.6209   -212.23854    38.762764 
 2360000    276.89303    197.19821    496.41713   -3363.5972    3350.4199   -299.21891    38.595531 
 2364000    296.89443    346.85323    298.02605   -3381.4163    3356.0198    48.827184    38.515187 
 2368000     289.7675     342.9171     363.2302   -3387.0866     3376.112    -20.31311    38.430765 
 2372000    315.34507    472.82874    341.21879   -3419.5207    3391.7358    131.60995    38.272608 
 2376000    280.88625    521.91655    318.41636    -3430.092    3425.4016    203.50019    38.329501 
 2380000    308.26011    469.94398     378.8351   -3468.8943    3452.5291    91.108879    38.385496 
 2384000    333.16741    407.03639    314.76654    -3471.432    3430.9372    92.269846     38.33061 
 2388000    277.19574    283.51429    338.73004    -3476.987    3473.4779   -55.215744    38.439027 
 2392000    277.02417    244.02698    297.58744   -3500.0312    3496.8252   -53.560451    38.463966 
 2396000    280.45915    435.79858    398.29758   -3515.4609     3509.235    37.501009    38.239917 
 2400000    274.37877    369.19442     403.8953   -3517.9167    3535.3043   -34.700883    38.203574 
 2404000    274.40238    373.64102      365.432   -3537.3273    3549.4826    8.2090247    38.068998 
 2408000    294.70519    444.85868    418.37568   -3562.4934    3559.9324    26.482994     38.09031 
 2412000    278.53969    451.02441    445.27986   -3595.3338    3570.5325    5.7445542    37.986395 
 2416000    291.21506    285.09253    445.88014   -3604.7886    3590.9279   -160.78762    38.036717 
 2420000    300.25794    317.82556    281.16627   -3629.9272    3606.5902    36.659288    38.053065 
 2424000    300.15856     227.9142    302.67924   -3638.1919    3615.3562   -74.765043     38.11446 
 2428000    283.74035    493.80762     466.8801   -3635.5213    3613.7481    26.927512    38.032417 
 2432000    285.78571    479.55565    510.25426   -3651.7138    3653.9015   -30.698614    38.023644 
 2436000    263.47896    289.48309    287.76275   -3651.8106    3656.3579    1.7203431    37.856264 
 2440000    278.24391    96.579938     339.4839   -3653.5516    3664.0456   -242.90396    37.692351 
 2444000    271.10479    334.69689      296.789   -3695.5589     3682.817    37.907885    37.837525 
 2448000    293.57936    330.62703    256.59213   -3713.6275    3695.9561    74.034906    37.948763 
 2452000    309.17578    312.01298    413.48329   -3743.0559    3727.4037    -101.4703    38.000402 
 2456000    306.10152    337.11807    220.99185   -3743.7417    3738.9292    116.12622    38.008826 
 2460000    289.06443     279.2969    377.28425   -3729.2611    3740.5248    -97.98735    38.149731 
 2464000    262.94203     470.5126    161.49026   -3779.8349    3789.7999    309.02234    38.288974 
 2468000    291.11521    279.26229    444.79677   -3798.0077    3792.4594   -165.53448    38.225049 
 2472000    274.14383    628.08858    269.26795   -3838.2945    3831.7449    358.82063    38.259132 
 2476000    272.05348    286.24209    534.26292   -3834.6807    3832.1761   -248.02083    38.277583 
 2480000    265.75344     382.7724    474.58181   -3820.7419    3825.3107   -91.809413    38.239922 
 2484000    258.16269    368.88621    182.80693   -3830.1485    3847.9714    186.07928    38.293066 
 2488000    283.14345    380.82858    340.98156   -3849.9378    3854.5031    39.847019    38.278376 
 2492000    289.30695    258.39502    315.21847   -3900.9981    3877.2279   -56.823452    38.278745 
 2496000    291.28575    344.15921    299.55597   -3911.0593    3899.5966    44.603239     38.40055 
 2500000    328.79433    540.63042    384.14722   -3930.5925    3919.5395    156.48321    38.482441 
 2504000    275.94792    413.18162    402.16297   -3949.2063    3940.4296    11.018651    38.490981 
 2508000    308.41135    337.44028    240.77938   -3975.1224    3944.8453      96.6609     38.24684 
 2512000    331.61818    389.59591    272.29804   -3996.7305    3960.8541    117.29786      38.4065 
 2516000    293.28903    534.14862    316.65764    -4000.528    4002.6151    217.49098    38.384289 
 2520000    294.61122    190.42542    288.97845   -4029.5239    3993.8829   -98.553028     38.31701 
 2524000    283.60614    296.97517    251.96222   -4021.2378    4029.5115    45.012953    38.220342 
 2528000    255.11891     229.2972    380.68198   -4052.7911    4073.4789   -151.38478    38.228836 
 2532000    266.35901    514.32905    211.68543   -4085.9632    4097.2226    302.64362    38.210602 
 2536000    270.02694    388.85012    288.84963   -4106.4606    4125.3758     100.0005    38.184675 
 2540000    262.42077    209.86529     252.5816   -4131.2386    4150.2821    -42.71631    38.017514 
 2544000    277.74645    466.19396    260.62963   -4164.5232    4162.2619    205.56432    38.116485 
 2548000    264.28827    333.88564    355.34986   -4190.0144    4192.9166   -21.464217    38.092674 
 2552000    277.79925    278.18336    248.58406   -4226.9569    4232.4444      29.5993     38.24045 
 2556000    268.36585    337.00873    217.46347   -4227.5657    4234.1603    119.54527    38.336738 
 2560000    278.45988      190.023    421.06004   -4250.4016    4243.6741   -231.03704    38.306867 
 2564000    281.15818    336.20677    264.26349   -4267.8946    4247.9064    71.943274    38.285758 
 2568000    272.12428    429.55608    425.72588   -4249.0638    4256.3227    3.8301958    38.394713 
 2572000    245.54724    279.88763    218.04258    -4287.356    4298.5599    61.845051    38.500306 
 2576000     302.0395    357.27936    258.85931   -4307.5641     4289.246    98.420046    38.524875 
 2580000    295.24467    641.90938    354.16741   -4331.4525    4321.5041    287.74197    38.773632 
 2584000    291.60686    362.67845    393.43629   -4357.9677    4354.4396   -30.757848    38.698958 
 2588000    281.67037    331.87343    134.25571   -4359.8854    4356.9164    197.61772    38.675048 
 2592000     273.5848    312.77032     198.7057   -4389.5245     4367.838    114.06462    38.722998 
 2596000    262.14921    437.36994     253.6687   -4393.3291    4391.0214    183.70124    38.758503 
 2600000     269.2653    320.48319    252.29217   -4400.2321    4404.8501    68.191023    38.787354 
 2604000    319.47225    451.51552    284.38196   -4458.8786    4423.5782    167.13356    38.898877 
 2608000    277.25871     404.7797    353.91506   -4463.6782    4449.1856    50.864645    38.806372 
 2612000    281.13945    370.70748    432.84708   -4493.2968    4487.0552     -62.1396    38.775931 
 2616000    276.60022    343.66029    322.51114   -4484.2276    4505.4257    21.149143     38.74156 
 2620000    281.84634    253.44557    328.15308   -4515.3038    4513.4768   -74.707506    38.674259 
 2624000     269.1532    439.53091    266.40419   -4545.0915    4551.1351    173.12672    38.684033 
 2628000    283.01717    298.92947     124.1279   -4568.0438    4565.4415    174.80157    38.813167 
 2632000    297.70362    298.81209    298.66434   -4584.9362    4559.5417   0.14775434    38.883239 
 2636000    290.52247    371.07773     341.1411   -4579.2141    4585.5489     29.93663    38.868493 
 2640000    285.63958    442.57523    152.34945   -4602.8175    4589.5474    290.22578    38.830566 
 2644000    272.00303    197.95118    392.76559   -4583.9022    4603.8203   -194.81441    38.705519 
 2648000    293.40284    304.34346    390.71203   -4613.1006     4599.394   -86.368574    38.640716 
 2652000    276.77995    236.04459    280.24425   -4627.2231    4621.0644   -44.199666    38.639728 
 2656000     254.1182    417.16619    370.83245   -4623.3859    4634.5658    46.333734     38.58533 
 2660000    290.10883    332.96677     259.6974   -4652.4529    4640.6308    73.269367    38.541645 
 2664000     259.5592    375.01448    266.51387   -4663.4612    4669.2656    108.50061    38.427761 
 2668000    307.71922    369.57081    340.27101   -4706.2223    4692.1522    29.299805    38.469059 
 2672000     298.9644    415.30922    306.10175   -4718.5234    4716.8791    109.20747    38.430724 
 2676000    278.75015    373.44552    212.32921   -4752.9503    4742.5914    161.11631    38.398894 
 2680000    260.80312    377.34111     277.8294   -4748.2595    4762.5363    99.511715    38.525079 
 2684000    280.91387    363.68479    319.93519   -4781.0108    4794.4665      43.7496    38.589434 
 2688000    262.98416    290.39011    353.08438   -4763.2621    4785.5162   -62.694268    38.596747 
 2692000    273.39226    284.06141     252.7855   -4811.1593    4799.4198     31.27591    38.417071 
 2696000    271.61342     417.4614    392.89123   -4836.6256     4837.562    24.570166    38.327409 
 2700000    288.36013    511.51705     653.0112   -4860.4721    4863.2594   -141.49415    38.296802 
 2704000    296.37345    322.60985    337.48775   -4867.6436    4863.2668   -14.877898     38.41673 
 2708000    284.53554    331.26001    367.04487    -4876.101     4870.089   -35.784859    38.525516 
 2712000    288.83075    349.46241    223.19587   -4879.0091    4875.9687    126.26654    38.507711 
 2716000    280.98353    553.36406    249.86318   -4907.9888    4918.8042    303.50088    38.489988 
 2720000    298.93901    246.81086    480.68592   -4925.7804    4907.8154   -233.87506    38.261538 
 2724000    273.92991    277.58667    286.81288   -4971.7554    4968.6486   -9.2262068    38.319555 
 2728000    294.37793    448.73608    354.49405   -4990.1975    4983.3235    94.242025     38.16152 
 2732000    285.77086    155.54052    294.65183   -4977.8235    4975.3453    -139.1113    38.128444 
 2736000    289.55833    222.75737    442.99796   -4972.8574    4968.7848   -220.24059    38.095949 
 2740000    272.29232    226.34347    332.94223   -4977.5924    4990.0288   -106.59876    38.106044 
 2744000    276.72809    483.47177    301.88286    -4997.369    4999.2076    181.58891    38.037991 
 2748000    318.69723    437.21085    404.37151   -5035.2838    5006.9776    32.839343    37.936774 
 2752000    282.33473    217.62733    248.96599   -5037.3827     5045.759   -31.338656    37.770933 
 2756000    310.19268    426.97556    349.91606   -5081.1556     5068.376    77.059505    37.754142 
 2760000    284.49237     238.5836    264.59363   -5096.1988    5095.9831   -26.010027    37.709534 
 2764000     258.6654     464.9496    228.35089   -5127.5847    5132.7096    236.59872    37.807486 
 2768000    277.45117    242.99302    482.84681   -5132.6173    5134.7982   -239.85379    37.764896 
 2772000    299.64497    484.16524    332.08179   -5152.6869    5144.8878    152.08345    37.876719 
 2776000    266.10104    364.68685    500.08089   -5159.8496    5146.0357   -135.39404    37.790121 
 2780000    273.65941    319.87235     213.7065   -5204.1613    5202.1632    106.16585    37.808345 
 2784000    278.31792    391.15192    259.53654   -5234.7146    5236.7049    131.61539    37.805996 
 2788000    306.93973    374.66307    304.03718    -5272.222    5273.5637    70.625887    37.825806 
 2792000    270.24071    455.74818    147.08315   -5319.2684    5315.8328    308.66502    37.761999 
 2796000     281.2329    325.06105    421.78856   -5323.6058    5332.0209   -96.727509    37.703549 
 2800000    268.77862    249.89991    287.11824    -5365.526    5373.8352   -37.218336    37.789304 
 2804000    294.05482     281.9339    456.04658    -5391.738    5386.1012   -174.11268    37.795908 
 2808000    294.82767    491.08447    313.81601   -5415.5926     5404.581    177.26846    37.811365 
 2812000    297.34541    329.48497    310.90505   -5403.1295     5394.657    18.579913    37.980098 
 2816000    304.30801    249.33877    378.29433   -5409.7623    5394.8581   -128.95556    37.875741 
 2820000    248.95269    327.86261    233.65855   -5426.3596    5436.7322    94.204061    37.899463 
 2824000    330.05448    326.58457    274.95402   -5472.0201    5449.3326    51.630554     37.97582 
 2828000    254.33744    315.85326    312.34803   -5481.3521    5499.8986    3.5052332    37.950943 
 2832000    278.76338    363.81102    194.53237   -5494.9354    5513.1107    169.27865    37.968248 
 2836000    280.76958    426.73201    184.75926   -5521.3702    5534.7724    241.97275    37.910935 
 2840000    269.88388    486.93828    371.56546   -5559.4208    5560.7199    115.37282    37.919018 
 2844000    272.28018    456.09059    338.10433   -5604.8367    5593.9529    117.98625    37.888244 
 2848000    281.25311    311.37836    232.63486   -5608.2694    5611.1228    78.743503    38.019669 
 2852000    284.81925    335.13997    541.69073   -5639.4616    5629.8264   -206.55077    37.941374 
 2856000    298.20111     267.5274    181.92753   -5653.3295    5650.6571    85.599869    38.017037 
 2860000    273.76281    456.28443    259.78259    -5676.925    5667.5673    196.50183    38.068429 
 2864000    313.43963    459.25309    288.82806   -5700.6482    5667.8515    170.42503    38.092506 
 2868000     287.0721    542.43027    423.98711   -5696.4034    5674.2187    118.44316    38.089109 
 2872000    296.48131    440.69857    340.77958   -5729.9905     5696.895    99.918992    38.182974 
 2876000    296.39066    441.70857    395.37471   -5733.7437    5715.4345    46.333853    38.196778 
 2880000    319.11241    293.48644    428.02222   -5772.4174    5738.1418   -134.53578    38.157278 
 2884000    266.17026    260.68791    476.51549   -5773.6911    5766.5448   -215.82758    38.170837 
 2888000    305.40776    273.21716    389.47154   -5790.9819    5791.1775   -116.25438    38.032384 
 2892000    297.21117    343.47598    356.13012   -5824.9426    5817.4643   -12.654134     37.95407 
 2896000    291.89778    633.38002    508.64436   -5840.5615     5836.723    124.73566    38.004316 
 2900000    271.30517    384.02043    305.09194   -5845.7434    5840.1926    78.928491    38.001596 
 2904000    309.22349    539.06401    297.89573   -5872.0022    5851.0025    241.16828    38.181569 
 2908000    303.79971    298.73279    288.95212   -5881.8928    5872.7139    9.7806768    38.240096 
 2912000    300.79445    347.66704    319.62585    -5896.127    5891.7653    28.041189    38.177533 
 2916000    269.23072     258.0994    235.10386   -5914.7359    5928.1197    22.995545    38.159461 
 2920000    256.26667    167.48583    507.99645   -5931.9775    5952.5585   -340.51063    38.220122 
 2924000    299.18119    315.60562    358.45247   -5971.6401    5960.6153   -42.846853    38.176323 
 2928000    295.11913    540.08634    394.21395   -5976.8294    5972.0491     145.8724    38.228745 
 2932000    297.09557    619.45438       270.15   -5979.9756    5976.2376    349.30438    38.185892 
 2936000    297.52258    380.65916    416.75512   -6017.4844    5982.5756   -36.095962    38.141605 
 2940000    288.26614    338.98702     334.9425   -6032.3054     6020.714    4.0445177     38.17758 
 2944000    262.56272    360.07418     325.3909   -6034.1806    6041.6767    34.683277    38.367763 
 2948000    270.99651    277.32855    256.72198   -6047.3326    6055.0398     20.60657    38.340719 
 2952000     268.7646    339.80936    333.32753    -6056.668    6081.0249    6.4818297     38.38217 
 2956000    284.86134    331.00893    343.25343   -6065.7449    6074.0067   -12.244492    38.367922 
 2960000      286.009    287.78975    205.69061   -6089.0413    6070.6957    82.099141    38.319794 
 2964000    277.66147    338.91205    399.36925   -6097.0921     6087.526   -60.457192    38.225832 
 2968000    278.64859     461.2426    293.02402   -6103.3842    6100.4996    168.21859     38.22206 
 2972000    289.27484    288.23113    169.79415   -6139.0096    6140.8159    118.43698    38.232156 
 2976000    302.84728     478.7445    260.37004   -6161.7943    6138.9636    218.37446    38.274483 
 2980000    265.79479    419.35638    277.38527   -6177.5954    6187.9024     141.9711    38.140789 
 2984000    258.40934    232.98133    276.57822   -6190.1811    6218.2209   -43.596891    38.105901 
[...]
32888000     287.8165    626.78551    414.23856   -142976.34     143087.2    212.54695    37.225827 
32892000    259.73422    244.99911    234.39205   -142992.11    143113.49    10.607057    37.228608 
32896000    297.46906    397.11305     330.9813   -143011.83    143125.79    66.131751    37.228633 
32900000    272.16885    222.71652    324.59337   -143001.48    143123.44   -101.87685    37.225338 
32904000    269.42956    432.37592    197.50229   -143034.46    143148.13    234.87362    37.225696 
32908000    274.69793    312.56456    307.41136   -143037.82    143148.36    5.1532037    37.220985 
32912000     273.7035    355.81683    348.04295   -143061.98     143190.2    7.7738812    37.220765 
32916000    290.38343    494.93256    314.16136    -143096.2    143210.25     180.7712    37.223608 
32920000    269.87564    497.32833    318.42169   -143110.68     143220.3    178.90664    37.226729 
32924000    278.74821    336.86492    295.22421    -143134.1    143259.02     41.64071    37.220846 
32928000    283.75764    285.27598    356.91835   -143161.87    143267.86   -71.642371    37.224046 
32932000    287.44698    257.32817    359.54095   -143155.04    143271.48   -102.21278    37.217133 
32936000    290.73832    465.29176    353.83867   -143170.24    143290.23    111.45309    37.222897 
32940000    300.87984    506.42641    339.06984   -143181.18    143275.98    167.35656    37.223313 
32944000    296.68939    164.13707    241.43277    -143190.1    143278.94     -77.2957    37.221468 
32948000    313.49653    585.50489    188.15906   -143232.84    143306.92    397.34583    37.225425 
32952000    333.31773    614.87777    334.41983   -143238.82    143318.57    280.45794    37.231093 
32956000    304.76682    348.43047    397.99535   -143273.31    143359.58   -49.564886    37.232713 
32960000    296.50189    232.81166    243.04753   -143275.43     143369.4    -10.23587     37.22892 
32964000    328.53906    375.02858    382.27355   -143289.18    143386.73    -7.244975    37.229078 
32968000    298.90961     214.5591    310.89301   -143320.48    143428.06   -96.333909    37.227964 
32972000    265.42742    484.62124    244.55053   -143344.96    143468.82    240.07072     37.22773 
32976000    298.97781     289.7301    193.10563   -143363.77       143467    96.624478    37.225747 
32980000    275.95294    362.85272    271.66837   -143386.94    143495.18     91.18435    37.225274 
32984000    268.10356    321.79438    185.22233   -143376.53    143500.76    136.57205    37.224172 
32988000    294.14633     435.9258    152.43458      -143404    143495.69    283.49122    37.222641 
32992000    318.16448    432.61143    364.40077   -143424.16    143522.96    68.210663    37.221288 
32996000    294.80053    341.39355    226.95864   -143455.22    143543.23    114.43491    37.219956 
33000000    287.54762    420.63026    522.79543   -143490.12    143569.08   -102.16516    37.215465 
33004000    281.84866    301.58416      302.256   -143498.01    143611.95  -0.67183965    37.219222 
33008000    261.32003    423.52142     330.6143   -143533.84    143649.21    92.907118     37.21654 
33012000    255.98188    508.87172    140.33554   -143554.75    143672.49    368.53618    37.218638 
33016000    250.60642    228.26452    234.61232   -143558.74    143687.27   -6.3477996    37.220401 
33020000    270.48718    368.13062    232.61633   -143588.51    143722.35     135.5143    37.221309 
33024000    279.75036    391.65989    361.45555   -143624.62    143749.81    30.204337    37.223969 
33028000    268.13965      267.823    350.58851   -143630.64    143745.58   -82.765508    37.223091 
33032000     263.5545    599.27021    488.43898   -143633.57    143755.68    110.83123    37.222502 
33036000     277.8441    526.23741    273.46038   -143656.79    143761.94    252.77703    37.220019 
33040000    275.04306    348.36813     363.8834    -143681.1     143803.3   -15.515268     37.22064 
33044000    284.81369    319.96831    242.76624    -143706.7    143809.82    77.202071     37.21845 
33048000    275.03105     337.8505    331.87164   -143740.45    143850.81     5.978853    37.223705 
33052000    296.04298    263.48753    278.26814   -143752.02    143851.45   -14.780606    37.221234 
33056000    295.28052    342.41484    229.67906   -143765.51    143874.31    112.73578    37.220063 
33060000    287.93891    417.18889    349.03575   -143797.22    143895.43    68.153136    37.222081 
33064000    293.06848    329.92322    254.54049   -143823.69    143932.56     75.38273     37.22026 
33068000    285.45574    425.32901    260.23225   -143841.51    143952.16    165.09676    37.220122 
33072000    281.34265    212.28437    367.08864   -143861.46    143978.73   -154.80427    37.220522 
33076000    276.06578    182.91895    453.67333   -143867.67    143987.53   -270.75438    37.217774 
33080000    298.08307    482.48535    378.12563   -143907.21    144007.88    104.35972    37.216313 
33084000    273.30265    244.17087    221.69391   -143934.49     144043.9    22.476961    37.219991 
33088000    306.27347    315.09929    304.47063   -143944.01    144054.11    10.628655    37.221471 
33092000    297.02028    315.72532    281.62559   -143943.67    144050.34    34.099728    37.226408 
33096000    275.63609    417.70438    233.52796   -143972.88    144076.68    184.17642    37.233139 
33100000    307.82619      322.772    413.76782   -143990.58    144097.78   -90.995816    37.234431 
33104000     269.1641    371.35247    195.66785   -144002.27    144138.58    175.68463    37.231542 
33108000    328.83995    558.68284    244.03393   -144033.19    144120.73     314.6489    37.225927 
33112000     307.6072    333.76554    314.27715   -144027.43    144130.11    19.488385    37.232435 
33116000    267.84364     273.3433    305.86908   -144021.24    144149.27   -32.525775    37.234199 
33120000    258.07653    388.16879    183.14225   -144028.35    144166.99    205.02654    37.231881 
33124000    269.82027     262.7102    250.38926   -144053.19    144174.03    12.320946    37.232236 
33128000    286.13862    490.96143    407.80265   -144096.97    144205.93    83.158788    37.231779 
33132000    285.77401    726.14363    506.26084   -144109.07    144231.05    219.88279    37.233548 
33136000     279.9022    282.44352    412.52399   -144135.18     144247.1   -130.08047    37.238646 
33140000     269.7133    429.03395    281.60186   -144146.26     144261.7    147.43209    37.243277 
33144000    293.12902    243.49401    346.19267   -144182.32    144273.16   -102.69866    37.241896 
33148000     268.5485    328.10049    439.08287   -144189.93    144318.33   -110.98238    37.238445 
33152000    228.39729    154.10973    387.91033   -144177.79    144321.31   -233.80059    37.238506 
33156000    280.36908    279.20558    261.81971   -144203.17    144331.34    17.385871     37.23794 
33160000    271.24592    361.02276    443.88153   -144250.82    144350.03   -82.858765    37.237739 
33164000    270.91182    317.24136    322.98946   -144260.31    144369.74   -5.7481062    37.237952 
33168000    271.53254    274.85081    274.61195   -144270.88    144390.83   0.23886041     37.24313 
33172000    291.75176     409.6305    338.21167   -144322.98    144437.32    71.418837    37.238218 
33176000    292.26741    227.61848    529.02039   -144354.97    144450.17    -301.4019    37.232397 
33180000    304.27048    189.06933    360.85232   -144370.82    144479.15   -171.78299    37.235686 
33184000    278.97289    403.60115    340.33574   -144388.43    144499.03    63.265406    37.239501 
33188000    279.47478    343.64822    325.52547   -144396.01     144515.8    18.122751     37.23671 
33192000    305.65288    344.07697    347.88149   -144425.56     144519.1   -3.8045236    37.231739 
33196000    305.58463    333.67029    355.76843   -144458.21    144549.43   -22.098138    37.231458 
33200000    278.87108    279.65085    240.13911   -144465.24    144574.11    39.511739     37.22999 
33204000    268.48862    350.73757    273.33899   -144467.51     144580.8    77.398577    37.228637 
33208000    267.50071    195.74874    353.13479   -144500.89    144625.32   -157.38605    37.226813 
33212000    292.68623    492.11299     331.2206   -144523.18    144646.62    160.89239    37.225703 
33216000    286.32617    354.95877    217.78024   -144550.85    144669.82    137.17854     37.22911 
33220000    267.29189     243.5417     322.3597   -144550.95    144677.62   -78.818001    37.228532 
33224000    231.89169    287.05643    304.53764   -144558.17    144701.87   -17.481208    37.228398 
33228000    322.47311    585.61041    193.02957   -144626.67    144715.89    392.58084    37.225848 
33232000    306.05811    190.76628    430.72688   -144638.57    144725.24    -239.9606      37.2227 
33236000    292.87486    450.65004    357.70363   -144655.13    144758.15    92.946413    37.227638 
33240000    266.87355    276.24943    285.66658   -144632.05     144762.2   -9.4171517    37.226767 
33244000    282.69267    400.14631    415.35274   -144669.95    144769.62   -15.206431    37.225622 
33248000    285.43215    297.03758    237.94751   -144690.24     144806.2    59.090065    37.223893 
33252000    286.99302    489.22927    297.89981   -144695.52    144820.37    191.32946    37.229239 
33256000    290.62948    384.40298    304.72802   -144722.26     144819.5    79.674962    37.232236 
33260000    287.98685    208.92359    239.22974   -144728.76    144827.18   -30.306149     37.23118 
33264000    282.62151    302.49092    444.45447   -144711.72    144856.76   -141.96356    37.228164 
33268000    290.03501    326.47668     324.2349   -144735.79     144837.7    2.2417784    37.221219 
33272000    271.92241    270.15981    240.72218   -144722.79    144850.02    29.437633     37.22075 
33276000     258.0171    497.22137     373.9848   -144755.19    144879.56    123.23657    37.221645 
33280000    269.90902    370.56066    269.79922   -144773.21    144886.21    100.76144    37.217686 
33284000    292.32958    356.12605    517.91037   -144794.63    144912.13   -161.78432    37.217148 
33288000    294.01465    406.37698    434.83515   -144837.43    144941.01   -28.458179    37.216057 
33292000    305.78165    412.38166    274.99142    -144878.4    144960.33    137.39024    37.221996 
33296000     283.6403     298.1996    367.46836   -144885.86    144990.44   -69.268754    37.227491 
33300000    275.47338    425.24028    390.08617   -144892.74    144998.35    35.154116    37.225296 
33304000    296.84832    461.11595    238.61226   -144927.52    145018.52     222.5037    37.227497 
33308000    290.12911    373.52537    225.95241   -144949.76    145038.96    147.57295    37.224092 
33312000    290.63993      287.551    264.25783   -144960.49    145062.93    23.293175    37.223655 
33316000    271.13249    436.50966    157.46798   -144975.96    145103.99    279.04167    37.226118 
33320000    277.05728    235.56698    269.71684      -145015    145128.94   -34.149869    37.222883 
33324000    267.24149    418.91847    291.84765   -145045.14    145165.46    127.07082    37.223667 
33328000    277.05876    423.30456    256.54738   -145068.38    145183.58    166.75718    37.222834 
33332000    273.59946    369.59867    248.59142   -145072.79    145205.08    121.00725    37.221451 
33336000    263.44591    448.95724    291.77437   -145083.38    145215.54    157.18287    37.222859 
33340000    283.09367    269.33369    356.83981   -145088.29     145227.3   -87.506123    37.218391 
33344000    289.29839    423.47682    329.62556   -145109.02    145218.79    93.851259    37.220475 
33348000    257.65974    461.48844    261.87932    -145117.9    145240.78    199.60912    37.218794 
33352000    267.71283    224.64221    293.57163   -145139.98     145244.6   -68.929421    37.221787 
33356000     280.5213    253.30996    266.96695   -145151.97    145276.32   -13.656994    37.219816 
33360000    284.58691    314.61159    334.71973   -145177.42    145304.08   -20.108144    37.221099 
33364000    278.98156    531.45837    205.93701   -145202.58     145323.4    325.52135    37.220498 
33368000    270.48578    291.00076    271.14717   -145213.64    145329.56    19.853588    37.217238 
33372000    263.71195    280.50025    327.07548   -145217.62    145337.19   -46.575228    37.219436 
33376000    281.36452    281.15947     350.0001   -145217.71    145344.56   -68.840627    37.214761 
33380000    266.62405    234.06121    145.41402   -145274.45    145391.17    88.647187    37.213188 
33384000    288.50762    374.81336    295.91039   -145303.28    145399.73    78.902972    37.214514 
33388000    277.74812    272.41738    269.87617   -145298.92    145422.53    2.5412172    37.213484 
33392000    285.49683    251.55063    246.80255    -145297.3    145423.02    4.7480824    37.210916 
33396000    314.24885    347.17674    363.43898   -145313.38    145418.92   -16.262246    37.213315 
33400000    241.41951    313.81553     237.4384   -145337.23    145462.96    76.377126    37.210332 
33404000     280.5645    389.07222     382.0907   -145354.95    145478.09    6.9815252    37.210282 
33408000    279.64713    376.33751    270.54548   -145354.06    145481.05    105.79203    37.210175 
33412000    261.93658    418.62895    171.03585    -145333.4     145466.9     247.5931    37.205984 
33416000    253.21785    476.66697     201.3892   -145352.07    145483.78    275.27777    37.202837 
33420000    291.92281    203.89498     313.2863   -145383.84    145489.28   -109.39131    37.202163 
33424000    277.52229    362.87301    312.43705   -145409.52    145512.63    50.435967    37.201281 
33428000    273.84268     495.6894    274.72723   -145425.97    145562.32    220.96217    37.205021 
33432000    250.15617     238.0285    240.86449   -145448.94    145595.92   -2.8359888    37.206864 
33436000    303.10567    330.83243    284.86395   -145499.16    145611.19    45.968473    37.206713 
33440000    272.50907    344.65216    333.50472   -145514.95    145615.83    11.147435    37.208509 
33444000    315.56623    365.74074    363.51674   -145528.08    145633.77    2.2240025    37.210684 
33448000      305.063    285.10626    243.73805   -145542.95    145645.52    41.368217    37.208663 
33452000    272.94787    440.44024    406.17574   -145546.63    145680.87    34.264502    37.205748 
33456000    285.96325    634.53896    335.63543   -145584.38    145706.75    298.90353    37.208615 
33460000    303.95827    388.52451    412.03705   -145604.55    145702.58   -23.512542    37.206234 
33464000    267.43371    340.86284     271.0869   -145610.92    145718.57    69.775942    37.207945 
33468000    314.39329    250.62832    311.03622   -145623.84    145727.23   -60.407892    37.203295 
33472000    252.60164      248.127    320.52888   -145642.43    145770.28    -72.40188    37.201779 
33476000    318.78365    603.49813    378.25489    -145679.1    145773.43    225.24323    37.199686 
33480000    283.69707    403.60329    214.55679   -145691.51    145791.04     189.0465    37.200973 
33484000    303.62177    242.41688     392.3305   -145687.89    145807.17   -149.91362    37.201693 
33488000    309.66664    481.89484    398.05767   -145711.63    145806.78    83.837175    37.200304 
33492000    293.23909    372.26651    136.49418   -145697.14       145814    235.77233    37.197226 
33496000    281.09189    325.49246    476.53215   -145703.48    145800.22   -151.03969    37.202032 
33500000    319.48366    181.02434    228.06113   -145744.81    145820.95   -47.036794    37.200623 
33504000    308.68948    470.19676    373.30316   -145757.72    145869.17      96.8936    37.196225 
33508000    305.28474    345.77325    272.09477    -145771.9    145872.21    73.678477    37.193294 
33512000    281.66051     274.1871     430.4299   -145800.36    145908.13    -156.2428    37.191213 
33516000     255.4831    232.17426    297.30793   -145814.96    145936.85   -65.133672    37.188848 
33520000    292.19053    592.07694     209.7859   -145845.83    145958.45    382.29104    37.190336 
33524000    300.60649    218.01742    332.10944   -145840.93    145950.88   -114.09202    37.189475 
33528000    289.08812     197.4021    318.30679   -145861.38    145967.58   -120.90469    37.191334 
33532000    280.96264     451.2562    382.46386    -145869.6    145998.66    68.792343    37.190238 
33536000    288.66101    240.52667    361.96627   -145909.31    146014.49    -121.4396    37.186842 
33540000    291.68084    180.00889    202.97705   -145893.45     146001.7   -22.968153     37.19275 
33544000    251.85057     389.6322    376.89523   -145918.82    146037.88     12.73697    37.189194 
33548000    320.03768    243.34976    341.83553   -145946.69    146061.62   -98.485766    37.188392 
33552000    314.97083    298.31409    491.16566   -145960.33    146062.55   -192.85157    37.190145 
33556000    301.12395    407.47443    334.23769   -145964.32    146080.94    73.236739    37.189763 
33560000    280.18179    590.16257    306.44947   -145995.68    146108.13     283.7131    37.192422 
33564000    295.48858    432.71506    410.49698   -146012.92     146119.2    22.218079    37.188556 
33568000    287.53624    520.27981    274.91884   -146035.81    146149.54    245.36098    37.188739 
33572000    268.26025    448.52651    187.92577   -146064.88    146184.43    260.60074    37.189489 
33576000    266.07129    184.98575    469.28129   -146089.54    146190.17   -284.29554    37.186991 
33580000    282.14186    378.29018    246.68114   -146138.15    146221.93    131.60903    37.188707 
33584000    306.64435    418.13583     418.0692   -146176.89     146263.9  0.066626449    37.190219 
33588000    275.56248    616.68155    367.78848    -146169.7    146288.03    248.89307    37.190507 
33592000    292.47577     386.4039     301.9866   -146175.05     146298.3    84.417302    37.190653 
33596000    298.34816    336.71705    286.78339   -146225.34    146323.47    49.933655    37.193363 
33600000    299.16924    296.62384    356.59576   -146249.59    146346.46   -59.971913    37.195591 
33604000    291.97648    213.36373    337.29307   -146238.55    146356.29   -123.92933    37.192346 
33608000    284.66012    449.35957    190.03504   -146246.92    146344.97    259.32454     37.19599 
33612000    247.15759    346.49333    312.80884   -146215.69     146351.7    33.684491    37.198853 
33616000     292.0531    316.77094    224.76273   -146286.91    146370.52     92.00821    37.197669 
33620000     316.3348    459.36497    286.74603   -146302.89    146390.25    172.61894      37.1982 
33624000     271.8462    262.70586    347.81431   -146301.22    146418.61   -85.108449    37.195536 
33628000    275.08959    568.09175    148.56607   -146322.21    146429.85    419.52569    37.197612 
Loop time of 10254.6 on 1 procs for 32000000 steps with 196 atoms

Performance: 337.021 ns/day, 0.071 hours/ns, 3120.561 timesteps/s
100.0% CPU use with 1 MPI tasks x no OpenMP threads

MPI task timing breakdown:
Section |  min time  |  avg time  |  max time  |%varavg| %total
---------------------------------------------------------------
Pair    | 3251.5     | 3251.5     | 3251.5     |   0.0 | 31.71
Bond    | 4965.5     | 4965.5     | 4965.5     |   0.0 | 48.42
Neigh   | 51.942     | 51.942     | 51.942     |   0.0 |  0.51
Comm    | 22.433     | 22.433     | 22.433     |   0.0 |  0.22
Output  | 8.776      | 8.776      | 8.776      |   0.0 |  0.09
Modify  | 1894.2     | 1894.2     | 1894.2     |   0.0 | 18.47
Other   |            | 60.3       |            |       |  0.59

Nlocal:    196 ave 196 max 196 min
Histogram: 1 0 0 0 0 0 0 0 0 0
Nghost:    0 ave 0 max 0 min
Histogram: 1 0 0 0 0 0 0 0 0 0
Neighs:    3900 ave 3900 max 3900 min
Histogram: 1 0 0 0 0 0 0 0 0 0

Total # of neighbors = 3900
Ave neighs/atom = 19.898
Ave special neighs/atom = 5.87755
Neighbor list builds = 108442
Dangerous builds = 0

write_restart FINALCONFIG

Total wall time: 2:59:23
