LAMMPS UA chain data file
 
         196  atoms
         194  bonds
         192  angles
         190  dihedrals
           0  impropers
 
           3  atom types
           1  bond types
           1  angle types
           1  dihedral types
           0  improper types
 
    -400.000000     400.000000 xlo xhi
    -400.000000     400.000000 ylo yhi
    -0.050000      124.000000 zlo zhi
 
Masses
 
  1   14.00
  2   14.00
  3   14.00
 
Atoms

 1 1 3 -3.03697 -0.84008 -0.0123858 0 0 0
 2 1 3 -2.04324 0.370126 0.763687 0 0 0
 3 1 3 -1.3324 1.13041 2.2141 0 0 0
 4 1 1 0.0411748 1.05735 3.39716 0 0 0
 5 1 1 0.799363 -0.0565831 4.6391 0 0 0
 6 1 1 0.389874 -1.23692 5.93436 0 0 0
 7 1 1 -0.85948 -1.60215 7.32366 0 0 0
 8 1 1 -1.87233 -0.789188 8.66078 0 0 0
 9 1 1 -1.75009 0.48887 9.96044 0 0 0
 10 1 1 -0.590718 1.13453 11.2508 0 0 0
 11 1 1 0.574861 0.621108 12.5781 0 0 0
 12 1 1 0.848559 -0.655916 13.7914 0 0 0
 13 1 1 -0.0231368 -1.65304 15.0755 0 0 0
 14 1 1 -1.32936 -1.56911 16.3766 0 0 0
 15 1 1 -2.06644 -0.45609 17.6017 0 0 0
 16 1 1 -1.59723 0.784478 18.8417 0 0 0
 17 1 1 -0.286592 1.16056 20.0985 0 0 0
 18 1 1 0.738117 0.367863 21.4351 0 0 0
 19 1 1 0.688319 -0.890616 22.7642 0 0 0
 20 1 1 -0.436398 -1.60691 24.031 0 0 0
 21 1 1 -1.58223 -1.0769 25.3724 0 0 0
 22 1 1 -1.83452 0.250152 26.6619 0 0 0
 23 1 1 -0.977971 1.23436 27.8808 0 0 0
 24 1 1 0.323557 1.27052 29.1229 0 0 0
 25 1 1 1.10606 0.210925 30.4198 0 0 0
 26 1 1 0.734661 -0.93685 31.761 0 0 0
 27 1 1 -0.503301 -1.36275 33.0694 0 0 0
 28 1 1 -1.53381 -0.530282 34.3471 0 0 0
 29 1 1 -1.57548 0.811709 35.5953 0 0 0
 30 1 1 -0.526453 1.6764 36.8652 0 0 0
 31 1 1 0.858823 1.32994 38.0216 0 0 0
 32 1 1 1.24095 0.145286 39.3342 0 0 0
 33 1 1 0.546321 -0.92725 40.6672 0 0 0
 34 1 1 -0.771321 -1.02778 41.9169 0 0 0
 35 1 1 -1.59161 -0.00480304 43.1966 0 0 0
 36 1 1 -1.27349 1.28396 44.4878 0 0 0
 37 1 1 -0.0738193 1.77248 45.8013 0 0 0
 38 1 1 1.05418 1.01073 47.0562 0 0 0
 39 1 1 1.07381 -0.297776 48.3829 0 0 0
 40 1 1 0.0330684 -1.03647 49.7113 0 0 0
 41 1 1 -1.18845 -0.532545 51.0101 0 0 0
 42 1 1 -1.48285 0.751452 52.2979 0 0 0
 43 1 1 -0.65789 1.74851 53.6179 0 0 0
 44 1 1 0.702045 1.62718 54.89 0 0 0
 45 1 1 1.43156 0.515957 56.1436 0 0 0
 46 1 1 0.973567 -0.783888 57.3552 0 0 0
 47 1 1 -0.303115 -1.15326 58.6605 0 0 0
 48 1 1 -1.35604 -0.3386 59.955 0 0 0
 49 1 1 -1.3345 1.01402 61.1897 0 0 0
 50 1 1 -0.235496 1.84911 62.4537 0 0 0
 51 1 1 1.07681 1.48704 63.7121 0 0 0
 52 1 1 1.63495 0.201238 64.9745 0 0 0
 53 1 1 0.939374 -1.01339 66.1798 0 0 0
 54 1 1 -0.413591 -1.17812 67.4673 0 0 0
 55 1 1 -1.31204 -0.278936 68.7793 0 0 0
 56 1 1 -1.15046 0.98137 70.0994 0 0 0
 57 1 1 -0.0103976 1.58376 71.3766 0 0 0
 58 1 1 1.24846 0.945444 72.6589 0 0 0
 59 1 1 1.451 -0.36263 73.9897 0 0 0
 60 1 1 0.585881 -1.26808 75.3388 0 0 0
 61 1 1 -0.691179 -1.03616 76.6117 0 0 0
 62 1 1 -1.22162 0.132791 77.9188 0 0 0
 63 1 1 -0.565135 1.28629 79.1854 0 0 0
 64 1 1 0.721425 1.4498 80.483 0 0 0
 65 1 1 1.72191 0.525282 81.6893 0 0 0
 66 1 1 1.57428 -0.74928 82.9682 0 0 0
 67 1 1 0.52415 -1.35914 84.3547 0 0 0
 68 1 1 -0.719291 -0.812283 85.6519 0 0 0
 69 1 1 -0.897333 0.507379 86.9321 0 0 0
 70 1 1 -0.00712389 1.55603 88.1385 0 0 0
 71 1 1 1.23348 1.47852 89.5175 0 0 0
 72 1 1 1.87864 0.346463 90.8186 0 0 0
 73 1 1 1.3237 -0.842612 92.1347 0 0 0
 74 1 1 0.028233 -1.11931 93.4383 0 0 0
 75 1 1 -0.982399 -0.267651 94.6735 0 0 0
 76 1 1 -0.926273 1.09396 95.8811 0 0 0
 77 1 1 0.177234 1.94222 97.0804 0 0 0
 78 1 1 1.46005 1.55018 98.389 0 0 0
 79 1 1 1.87959 0.381746 99.6977 0 0 0
 80 1 1 1.13927 -0.699285 100.956 0 0 0
 81 1 1 -0.0554808 -0.687372 102.391 0 0 0
 82 1 1 -0.837105 0.394931 103.667 0 0 0
 83 1 1 -0.353041 1.65379 104.911 0 0 0
 84 1 1 0.845607 2.04749 106.219 0 0 0
 85 1 1 1.93047 1.2619 107.516 0 0 0
 86 1 1 1.86111 -0.0411895 108.835 0 0 0
 87 1 1 0.84252 -0.834702 110.122 0 0 0
 88 1 1 -0.420559 -0.415255 111.365 0 0 0
 89 1 1 -0.870921 0.780932 112.71 0 0 0
 90 1 1 -0.123205 1.93038 113.888 0 0 0
 91 1 1 1.275 2.02192 115.107 0 0 0
 92 1 1 2.23772 0.92301 116.325 0 0 0
 93 1 1 1.98585 -0.327228 117.672 0 0 0
 94 1 1 0.81325 -0.906652 118.975 0 0 0
 95 1 1 -0.707941 -0.436682 119.884 0 0 0
 96 1 2 -1.4379 0.4302 121.245 0 0 0
 97 1 2 -1.3844 -0.678 122.297 0 0 0
 98 1 2 -1.7147 -0.2091 123.87 0 0 0
 99 2 3 1.71557 0.35788 -0.0123858 0 0 0
 100 2 3 1.08371 -0.718974 1.26172 0 0 0
 101 2 3 -0.292471 -1.56034 2.14376 0 0 0
 102 2 1 -1.45594 -1.44716 3.60729 0 0 0
 103 2 1 -2.07724 -0.261881 4.84714 0 0 0
 104 2 1 -1.54642 0.89981 6.14569 0 0 0
 105 2 1 -0.187398 1.24728 7.32459 0 0 0
 106 2 1 0.813022 0.41305 8.64118 0 0 0
 107 2 1 0.812207 -0.924686 9.81581 0 0 0
 108 2 1 -0.20712 -1.72409 11.0771 0 0 0
 109 2 1 -1.50307 -1.35484 12.3264 0 0 0
 110 2 1 -2.02372 -0.158869 13.6144 0 0 0
 111 2 1 -1.27565 0.943228 14.9126 0 0 0
 112 2 1 0.0650204 1.01118 16.2199 0 0 0
 113 2 1 0.812895 -0.0318704 17.4995 0 0 0
 114 2 1 0.433093 -1.26597 18.7883 0 0 0
 115 2 1 -0.784022 -1.69592 20.1117 0 0 0
 116 2 1 -1.86791 -0.89506 21.4295 0 0 0
 117 2 1 -1.87524 0.453799 22.6897 0 0 0
 118 2 1 -0.786753 1.26379 23.9506 0 0 0
 119 2 1 0.56523 0.888692 25.1861 0 0 0
 120 2 1 1.01184 -0.373286 26.4775 0 0 0
 121 2 1 0.260264 -1.37041 27.8144 0 0 0
 122 2 1 -0.982479 -1.39959 29.1338 0 0 0
 123 2 1 -1.7439 -0.314496 30.3994 0 0 0
 124 2 1 -1.41325 1.0309 31.6492 0 0 0
 125 2 1 -0.127119 1.53499 32.9204 0 0 0
 126 2 1 0.99512 0.861825 34.2338 0 0 0
 127 2 1 1.06723 -0.39481 35.5616 0 0 0
 128 2 1 0.0304776 -1.18631 36.8926 0 0 0
 129 2 1 -1.2502 -0.764893 38.152 0 0 0
 130 2 1 -1.61432 0.517204 39.4078 0 0 0
 131 2 1 -0.838708 1.58389 40.7254 0 0 0
 132 2 1 0.487488 1.60829 42.0287 0 0 0
 133 2 1 1.23577 0.559013 43.3274 0 0 0
 134 2 1 0.846354 -0.702577 44.6067 0 0 0
 135 2 1 -0.404808 -1.16062 45.8544 0 0 0
 136 2 1 -1.50836 -0.394891 47.1015 0 0 0
 137 2 1 -1.52336 0.978169 48.3213 0 0 0
 138 2 1 -0.454614 1.85432 49.546 0 0 0
 139 2 1 0.835624 1.56549 50.8201 0 0 0
 140 2 1 1.41412 0.363362 52.0503 0 0 0
 141 2 1 0.750211 -0.785901 53.3578 0 0 0
 142 2 1 -0.584624 -0.992139 54.643 0 0 0
 143 2 1 -1.41988 -0.0130539 55.9262 0 0 0
 144 2 1 -1.12577 1.21976 57.2418 0 0 0
 145 2 1 0.0988011 1.73302 58.5441 0 0 0
 146 2 1 1.22685 1.08623 59.7785 0 0 0
 147 2 1 1.30615 -0.220263 61.0824 0 0 0
 148 2 1 0.343482 -1.03265 62.4101 0 0 0
 149 2 1 -0.814889 -0.638355 63.7813 0 0 0
 150 2 1 -1.23333 0.599648 65.1183 0 0 0
 151 2 1 -0.454569 1.59323 66.4461 0 0 0
 152 2 1 0.842325 1.41735 67.7726 0 0 0
 153 2 1 1.53027 0.323833 69.0069 0 0 0
 154 2 1 1.07892 -0.865247 70.3238 0 0 0
 155 2 1 -0.141731 -1.3554 71.5636 0 0 0
 156 2 1 -1.25998 -0.601523 72.8208 0 0 0
 157 2 1 -1.24375 0.665305 74.1702 0 0 0
 158 2 1 -0.239059 1.53054 75.475 0 0 0
 159 2 1 1.16215 1.18772 76.6871 0 0 0
 160 2 1 1.63183 -0.0424581 77.9435 0 0 0
 161 2 1 1.02803 -1.2118 79.264 0 0 0
 162 2 1 -0.274584 -1.24795 80.5314 0 0 0
 163 2 1 -1.09962 -0.327165 81.9263 0 0 0
 164 2 1 -0.727164 0.959047 83.2128 0 0 0
 165 2 1 0.576872 1.5031 84.454 0 0 0
 166 2 1 1.6953 0.837147 85.7655 0 0 0
 167 2 1 1.83697 -0.471985 87.0849 0 0 0
 168 2 1 0.886944 -1.22635 88.4175 0 0 0
 169 2 1 -0.4647 -0.910983 89.6066 0 0 0
 170 2 1 -1.02244 0.265093 90.8806 0 0 0
 171 2 1 -0.429086 1.41289 92.1691 0 0 0
 172 2 1 0.845936 1.67177 93.3857 0 0 0
 173 2 1 1.73732 0.85391 94.7404 0 0 0
 174 2 1 1.58179 -0.413881 96.061 0 0 0
 175 2 1 0.483313 -0.9934 97.3923 0 0 0
 176 2 1 -0.683689 -0.373889 98.6002 0 0 0
 177 2 1 -0.919624 0.992856 99.8095 0 0 0
 178 2 1 -0.0629703 1.9468 101.113 0 0 0
 179 2 1 1.31539 1.87979 102.38 0 0 0
 180 2 1 2.05051 0.765328 103.631 0 0 0
 181 2 1 1.57519 -0.466824 104.882 0 0 0
 182 2 1 0.405551 -0.838036 106.229 0 0 0
 183 2 1 -0.631703 -0.0873268 107.519 0 0 0
 184 2 1 -0.693072 1.20595 108.786 0 0 0
 185 2 1 0.294368 2.02672 110.051 0 0 0
 186 2 1 1.56219 1.64177 111.35 0 0 0
 187 2 1 2.01012 0.442214 112.688 0 0 0
 188 2 1 1.26151 -0.685779 113.943 0 0 0
 189 2 1 0.0696527 -0.620284 115.326 0 0 0
 190 2 1 -0.629965 0.473712 116.612 0 0 0
 191 2 1 -0.114857 1.67142 117.903 0 0 0
 192 2 1 1.19722 2.01235 119.141 0 0 0
 193 2 1 2.02309 1.29596 120.588 0 0 0
 194 2 2 3.4621 0.4302 121.245 0 0 0
 195 2 2 3.5156 -0.678 122.297 0 0 0
 196 2 2 3.1853 -0.2091 123.87 0 0 0

Bonds
 
       1         1         1       2
       2         1         2       3
       3         1         3       4
       4         1         4       5
       5         1         5       6
       6         1         6       7
       7         1         7       8
       8         1         8       9
       9         1         9      10
      10         1        10      11
      11         1        11      12
      12         1        12      13
      13         1        13      14
      14         1        14      15
      15         1        15      16
      16         1        16      17
      17         1        17      18
      18         1        18      19
      19         1        19      20
      20         1        20      21
      21         1        21      22
      22         1        22      23
      23         1        23      24
      24         1        24      25
      25         1        25      26
      26         1        26      27
      27         1        27      28
      28         1        28      29
      29         1        29      30
      30         1        30      31
      31         1        31      32
      32         1        32      33
      33         1        33      34
      34         1        34      35
      35         1        35      36
      36         1        36      37
      37         1        37      38
      38         1        38      39
      39         1        39      40
      40         1        40      41
      41         1        41      42
      42         1        42      43
      43         1        43      44
      44         1        44      45
      45         1        45      46
      46         1        46      47
      47         1        47      48
      48         1        48      49
      49         1        49      50
      50         1        50      51
      51         1        51      52
      52         1        52      53
      53         1        53      54
      54         1        54      55
      55         1        55      56
      56         1        56      57
      57         1        57      58
      58         1        58      59
      59         1        59      60
      60         1        60      61
      61         1        61      62
      62         1        62      63
      63         1        63      64
      64         1        64      65
      65         1        65      66
      66         1        66      67
      67         1        67      68
      68         1        68      69
      69         1        69      70
      70         1        70      71
      71         1        71      72
      72         1        72      73
      73         1        73      74
      74         1        74      75
      75         1        75      76
      76         1        76      77
      77         1        77      78
      78         1        78      79
      79         1        79      80
      80         1        80      81
      81         1        81      82
      82         1        82      83
      83         1        83      84
      84         1        84      85
      85         1        85      86
      86         1        86      87
      87         1        87      88
      88         1        88      89
      89         1        89      90
      90         1        90      91
      91         1        91      92
      92         1        92      93
      93         1        93      94
      94         1        94      95
      95         1        95      96
      96         1        96      97
      97         1        97      98
      98         1        99     100
      99         1       100     101
     100         1       101     102
     101         1       102     103
     102         1       103     104
     103         1       104     105
     104         1       105     106
     105         1       106     107
     106         1       107     108
     107         1       108     109
     108         1       109     110
     109         1       110     111
     110         1       111     112
     111         1       112     113
     112         1       113     114
     113         1       114     115
     114         1       115     116
     115         1       116     117
     116         1       117     118
     117         1       118     119
     118         1       119     120
     119         1       120     121
     120         1       121     122
     121         1       122     123
     122         1       123     124
     123         1       124     125
     124         1       125     126
     125         1       126     127
     126         1       127     128
     127         1       128     129
     128         1       129     130
     129         1       130     131
     130         1       131     132
     131         1       132     133
     132         1       133     134
     133         1       134     135
     134         1       135     136
     135         1       136     137
     136         1       137     138
     137         1       138     139
     138         1       139     140
     139         1       140     141
     140         1       141     142
     141         1       142     143
     142         1       143     144
     143         1       144     145
     144         1       145     146
     145         1       146     147
     146         1       147     148
     147         1       148     149
     148         1       149     150
     149         1       150     151
     150         1       151     152
     151         1       152     153
     152         1       153     154
     153         1       154     155
     154         1       155     156
     155         1       156     157
     156         1       157     158
     157         1       158     159
     158         1       159     160
     159         1       160     161
     160         1       161     162
     161         1       162     163
     162         1       163     164
     163         1       164     165
     164         1       165     166
     165         1       166     167
     166         1       167     168
     167         1       168     169
     168         1       169     170
     169         1       170     171
     170         1       171     172
     171         1       172     173
     172         1       173     174
     173         1       174     175
     174         1       175     176
     175         1       176     177
     176         1       177     178
     177         1       178     179
     178         1       179     180
     179         1       180     181
     180         1       181     182
     181         1       182     183
     182         1       183     184
     183         1       184     185
     184         1       185     186
     185         1       186     187
     186         1       187     188
     187         1       188     189
     188         1       189     190
     189         1       190     191
     190         1       191     192
     191         1       192     193
     192         1       193     194
     193         1       194     195
     194         1       195     196
 
Angles
 
           1           1           1           2           3
           2           1           2           3           4
           3           1           3           4           5
           4           1           4           5           6
           5           1           5           6           7
           6           1           6           7           8
           7           1           7           8           9
           8           1           8           9          10
           9           1           9          10          11
          10           1          10          11          12
          11           1          11          12          13
          12           1          12          13          14
          13           1          13          14          15
          14           1          14          15          16
          15           1          15          16          17
          16           1          16          17          18
          17           1          17          18          19
          18           1          18          19          20
          19           1          19          20          21
          20           1          20          21          22
          21           1          21          22          23
          22           1          22          23          24
          23           1          23          24          25
          24           1          24          25          26
          25           1          25          26          27
          26           1          26          27          28
          27           1          27          28          29
          28           1          28          29          30
          29           1          29          30          31
          30           1          30          31          32
          31           1          31          32          33
          32           1          32          33          34
          33           1          33          34          35
          34           1          34          35          36
          35           1          35          36          37
          36           1          36          37          38
          37           1          37          38          39
          38           1          38          39          40
          39           1          39          40          41
          40           1          40          41          42
          41           1          41          42          43
          42           1          42          43          44
          43           1          43          44          45
          44           1          44          45          46
          45           1          45          46          47
          46           1          46          47          48
          47           1          47          48          49
          48           1          48          49          50
          49           1          49          50          51
          50           1          50          51          52
          51           1          51          52          53
          52           1          52          53          54
          53           1          53          54          55
          54           1          54          55          56
          55           1          55          56          57
          56           1          56          57          58
          57           1          57          58          59
          58           1          58          59          60
          59           1          59          60          61
          60           1          60          61          62
          61           1          61          62          63
          62           1          62          63          64
          63           1          63          64          65
          64           1          64          65          66
          65           1          65          66          67
          66           1          66          67          68
          67           1          67          68          69
          68           1          68          69          70
          69           1          69          70          71
          70           1          70          71          72
          71           1          71          72          73
          72           1          72          73          74
          73           1          73          74          75
          74           1          74          75          76
          75           1          75          76          77
          76           1          76          77          78
          77           1          77          78          79
          78           1          78          79          80
          79           1          79          80          81
          80           1          80          81          82
          81           1          81          82          83
          82           1          82          83          84
          83           1          83          84          85
          84           1          84          85          86
          85           1          85          86          87
          86           1          86          87          88
          87           1          87          88          89
          88           1          88          89          90
          89           1          89          90          91
          90           1          90          91          92
          91           1          91          92          93
          92           1          92          93          94
          93           1          93          94          95
          94           1          94          95          96
          95           1          95          96          97
          96           1          96          97          98
          97           1          99         100         101
          98           1         100         101         102
          99           1         101         102         103
         100           1         102         103         104
         101           1         103         104         105
         102           1         104         105         106
         103           1         105         106         107
         104           1         106         107         108
         105           1         107         108         109
         106           1         108         109         110
         107           1         109         110         111
         108           1         110         111         112
         109           1         111         112         113
         110           1         112         113         114
         111           1         113         114         115
         112           1         114         115         116
         113           1         115         116         117
         114           1         116         117         118
         115           1         117         118         119
         116           1         118         119         120
         117           1         119         120         121
         118           1         120         121         122
         119           1         121         122         123
         120           1         122         123         124
         121           1         123         124         125
         122           1         124         125         126
         123           1         125         126         127
         124           1         126         127         128
         125           1         127         128         129
         126           1         128         129         130
         127           1         129         130         131
         128           1         130         131         132
         129           1         131         132         133
         130           1         132         133         134
         131           1         133         134         135
         132           1         134         135         136
         133           1         135         136         137
         134           1         136         137         138
         135           1         137         138         139
         136           1         138         139         140
         137           1         139         140         141
         138           1         140         141         142
         139           1         141         142         143
         140           1         142         143         144
         141           1         143         144         145
         142           1         144         145         146
         143           1         145         146         147
         144           1         146         147         148
         145           1         147         148         149
         146           1         148         149         150
         147           1         149         150         151
         148           1         150         151         152
         149           1         151         152         153
         150           1         152         153         154
         151           1         153         154         155
         152           1         154         155         156
         153           1         155         156         157
         154           1         156         157         158
         155           1         157         158         159
         156           1         158         159         160
         157           1         159         160         161
         158           1         160         161         162
         159           1         161         162         163
         160           1         162         163         164
         161           1         163         164         165
         162           1         164         165         166
         163           1         165         166         167
         164           1         166         167         168
         165           1         167         168         169
         166           1         168         169         170
         167           1         169         170         171
         168           1         170         171         172
         169           1         171         172         173
         170           1         172         173         174
         171           1         173         174         175
         172           1         174         175         176
         173           1         175         176         177
         174           1         176         177         178
         175           1         177         178         179
         176           1         178         179         180
         177           1         179         180         181
         178           1         180         181         182
         179           1         181         182         183
         180           1         182         183         184
         181           1         183         184         185
         182           1         184         185         186
         183           1         185         186         187
         184           1         186         187         188
         185           1         187         188         189
         186           1         188         189         190
         187           1         189         190         191
         188           1         190         191         192
         189           1         191         192         193
         190           1         192         193         194
         191           1         193         194         195
         192           1         194         195         196
 
Dihedrals
 
           1           1           1           2           3           4
           2           1           2           3           4           5
           3           1           3           4           5           6
           4           1           4           5           6           7
           5           1           5           6           7           8
           6           1           6           7           8           9
           7           1           7           8           9          10
           8           1           8           9          10          11
           9           1           9          10          11          12
          10           1          10          11          12          13
          11           1          11          12          13          14
          12           1          12          13          14          15
          13           1          13          14          15          16
          14           1          14          15          16          17
          15           1          15          16          17          18
          16           1          16          17          18          19
          17           1          17          18          19          20
          18           1          18          19          20          21
          19           1          19          20          21          22
          20           1          20          21          22          23
          21           1          21          22          23          24
          22           1          22          23          24          25
          23           1          23          24          25          26
          24           1          24          25          26          27
          25           1          25          26          27          28
          26           1          26          27          28          29
          27           1          27          28          29          30
          28           1          28          29          30          31
          29           1          29          30          31          32
          30           1          30          31          32          33
          31           1          31          32          33          34
          32           1          32          33          34          35
          33           1          33          34          35          36
          34           1          34          35          36          37
          35           1          35          36          37          38
          36           1          36          37          38          39
          37           1          37          38          39          40