LAMMPS (16 Mar 2018)
# 1. INITIALIZATION
#allows pair, bond, bending and dihedral interactions
atom_style molecular

  # periodic (video game) boundaries in all cartesian directions
boundary p p s

  # uses real units (instead of units based on pair potential parameters).  List of units used in manual
units real

###########
# 2. ATOM DEFINITION
##########

   ##
   # Read in data from starting configuration file
   ##

#read_data chainconfig.dat

 #use to restart
read_restart RESTART
  orthogonal box = (-400 -400 -0.0371672) to (400 400 123.895)
  1 by 1 by 1 MPI processor grid
  196 atoms
  194 bonds
  192 angles
  190 dihedrals
  2 = max # of 1-2 neighbors
  2 = max # of 1-3 neighbors
  4 = max # of 1-4 neighbors
  6 = max # of special neighbors

   ##
   # Specify the nature of the bond interactions
   ##


bond_style harmonic
bond_coeff 1 450 1.54

special_bonds lj 0.0 0.0 0.0 angle no dihedral no

angle_style harmonic
angle_coeff 1 62.1  114.00

dihedral_style opls
dihedral_coeff * 1.4110 -0.2708 3.143 0.0

mass * 14.0

pair_style lj/cut 14.0
pair_coeff 1 1 0.0912 3.95 14.0
#pair_modify tail yes

group twistables type 3
6 atoms in group twistables
group freeze type 2
6 atoms in group freeze
fix startend freeze setforce 0.0 0.0 0.0
fix startend0 twistables setforce 0.0 0.0 0.0

################
# 3.  Simulation Settings
###############

neighbor        2.0 bin
neigh_modify    every 1 delay 0 check yes



# Define some variables
variable Lx          equal xhi-xlo   # Ang
variable Ly          equal yhi-ylo   # Ang
variable Lz          equal zhi-zlo   # Ang

variable dz          equal ${Lz}/30  # Ang
variable dz          equal 123.931948666893/30  

variable zzlo        equal zlo+0.05  # Ang
variable zzhi        equal zhi  # Ang
variable vol         equal ${Lx}*${Ly}*${Lz}  # Ang^3
variable vol         equal 800*${Ly}*${Lz}  
variable vol         equal 800*800*${Lz}  
variable vol         equal 800*800*123.931948666893  
variable TEMP        equal 300.00 # K
variable TThi        equal 320.00 # K
variable TTlo        equal 280.00 # K
variable dt          equal 1.25 # fs

timestep     ${dt}
timestep     1.25

variable zlo1      equal ${zzlo}+2.7
variable zlo1      equal 0.0128327665533126+2.7
variable zlo2      equal ${zzlo}+8.4
variable zlo2      equal 0.0128327665533126+8.4
variable zhi1      equal ${zzlo}+115.5
variable zhi1      equal 0.0128327665533126+115.5
variable zhi2      equal ${zzlo}+121
variable zhi2      equal 0.0128327665533126+121

# heat layers

region          hot  block  INF INF INF INF ${zlo1} ${zlo2}
region          hot  block  INF INF INF INF 2.71283276655331 ${zlo2}
region          hot  block  INF INF INF INF 2.71283276655331 8.41283276655331
region          cold block INF INF INF INF ${zhi1} ${zhi2}
region          cold block INF INF INF INF 115.512832766553 ${zhi2}
region          cold block INF INF INF INF 115.512832766553 121.012832766553
compute         Thot all temp/region hot
compute         Tcold all temp/region cold


# 1st equilibration run
fix             1 all nvt temp ${TEMP} ${TEMP} 50
fix             1 all nvt temp 300 ${TEMP} 50
fix             1 all nvt temp 300 300 50
thermo          100
run             8000
Unused restart file peratom fix info:
  fix style: STORE, fix ID: layers_COMPUTE_STORE
Neighbor list info ...
  update every 1 steps, delay 0 steps, check yes
  max neighbors/atom: 2000, page size: 100000
  master list distance cutoff = 16
  ghost atom cutoff = 16
  binsize = 8, bins = 100 100 16
  1 neighbor lists, perpetual/occasional/extra = 1 0 0
  (1) pair lj/cut, perpetual
      attributes: half, newton on
      pair build: half/bin/newton
      stencil: half/bin/3d/newton
      bin: standard
Per MPI rank memory allocation (min/avg/max) = 9.689 | 9.689 | 9.689 Mbytes
Step Temp E_pair E_mol TotEng Press Volume 
134452000    290.90544    4393.4735    11017.723    15580.288   -10.143505     79316447 
134452100     330.1579    4468.3661    10950.566    15610.839   -9.7207728     79316447 
134452200    307.02735    4357.8721    11049.062    15585.396   -10.334363     79316447 
134452300    323.47298    4481.8584    10914.003    15583.882   -9.5680581     79316447 
134452400    284.41668    4314.4054    11104.465     15584.19   -10.583749     79316447 
134452500    301.52236    4506.8228    10898.864    15580.949   -9.4599192     79316447 
134452600    297.43179    4321.2556    11086.465    15580.606   -10.521407     79316447 
134452700    315.61202    4498.3203    10905.062    15586.835   -9.5478011     79316447 
134452800     279.0421    4385.4234    11024.259    15571.878   -10.146016     79316447 
134452900    296.54237    4408.8047     11007.97    15589.143   -10.062465     79316447 
134453000    306.05885    4446.2857     10965.32    15589.505   -9.8000271     79316447 
134453100    303.14051    4348.0946    11065.434    15589.731   -10.375506     79316447 
134453200    300.56782    4485.5058    10914.712    15574.926   -9.5553924     79316447 
134453300    295.36134     4324.359    11084.256    15580.296   -10.543098     79316447 
134453400    289.38466    4521.7212    10900.808    15590.737   -9.3978827     79316447 
134453500    288.67822    4296.9568    11097.457    15562.211   -10.694273     79316447 
134453600    304.29348    4493.3253    10898.979    15569.177   -9.5029488     79316447 
134453700    314.38116     4303.653    11111.042    15597.431   -10.686846     79316447 
134453800    280.75358      4446.62    10956.369    15566.179   -9.8318365     79316447 
134453900    286.09465    4414.9673    11010.129    15591.391   -10.016389     79316447 
134454000    277.08964    4386.4656    11031.341    15578.868   -10.202289     79316447 
134454100    264.98831    4456.0103    10939.111    15549.148   -9.7719795     79316447 
134454200    323.25504    4343.6549    11054.829    15586.379   -10.426737     79316447 
134454300    252.65395    4468.6112     10948.04    15563.508   -9.7355377     79316447 
134454400    307.10493    4356.6585    11058.367    15593.533   -10.382372     79316447 
134454500    312.89548    4512.5663    10893.836    15588.275   -9.4483126     79316447 
134454600    259.07817    4319.6477     11099.23    15569.469   -10.591181     79316447 
134454700    318.08719    4497.3377    10904.021    15586.249   -9.4919832     79316447 
134454800    270.06812    4329.6626    11062.339     15548.98    -10.48128     79316447 
134454900    294.62438    4433.3471    10974.927    15579.527   -9.8771147     79316447 
134455000    311.64378    4388.8387    11026.688    15596.672   -10.180769     79316447 
134455100    281.94772    4396.8801    11003.129    15563.893   -10.101246     79316447 
134455200    314.91124     4455.468    10954.204    15592.716   -9.7504779     79316447 
134455300    274.57006    4337.7022    11063.901    15561.199    -10.45121     79316447 
134455400    292.59275    4493.0467    10925.349    15588.467   -9.5823088     79316447 
134455500     305.9014    4320.6798    11078.798    15577.285   -10.498833     79316447 
134455600    306.17884    4520.6144    10899.631    15598.214   -9.4095791     79316447 
134455700    301.63999    4330.0758    11072.735    15578.142    -10.49823     79316447 
134455800    277.85053    4495.3377    10924.546    15581.386   -9.5801036     79316447 
134455900     326.5818    4333.5345     11072.13    15595.493   -10.464368     79316447 
134456000    283.23488     4450.327    10951.703    15566.662   -9.7803448     79316447 
134456100    329.36156    4419.5256    10989.738    15600.707   -9.9943837     79316447 
134456200    283.80477    4395.1026     11011.55    15571.616   -10.123295     79316447 
134456300    335.01698    4449.8741    10961.805     15606.41   -9.7882159     79316447 
134456400    269.13373    4338.8005    11079.095    15574.332   -10.468062     79316447 
134456500     310.8805    4485.0745    10921.289    15587.065    -9.604248     79316447 
134456600    337.76418     4329.671    11088.158    15614.157   -10.532831     79316447 
134456700    295.41598    4484.8047    10916.977    15573.494   -9.5810794     79316447 
134456800     304.1795    4353.0088    11077.427    15607.242   -10.411151     79316447 
134456900    291.58692    4474.6537    10923.333    15567.474   -9.6684433     79316447 
134457000     323.2376    4328.3416    11073.662    15589.888   -10.498135     79316447 
134457100      272.112    4451.1407    10949.654    15558.962    -9.775021     79316447 
134457200    303.55555    4392.8175    11016.703    15585.965   -10.118771     79316447 
134457300    292.50277    4403.5387    11020.352     15593.91    -10.09949     79316447 
134457400    284.21054    4466.5092    10945.818    15577.526   -9.7105593     79316447 
134457500    324.78155    4361.1172    11037.191     15587.09   -10.288785     79316447 
134457600    300.95272    4481.4035    10936.567    15592.901   -9.6216337     79316447 
134457700    287.10644    4309.1716    11096.031    15572.086    -10.63797     79316447 
134457800    287.05407    4507.0954    10900.392    15574.339   -9.4618929     79316447 
134457900    307.52912    4346.5628    11066.725    15592.041   -10.437729     79316447 
134458000    281.14382    4455.8826    10937.347    15556.647   -9.7316088     79316447 
134458100    322.54055    4389.6617    11015.799     15592.94   -10.145637     79316447 
134458200    306.19543    4386.6188    11017.743    15582.341   -10.166862     79316447 
134458300    274.38686    4460.2254    10948.509    15568.224   -9.7631784     79316447 
134458400    300.10277    4326.5547    11091.803    15592.795   -10.502144     79316447 
134458500    287.72121    4501.4694    10897.354    15566.064    -9.493577     79316447 
134458600    298.55463    4335.6972    11079.845     15589.08   -10.489674     79316447 
134458700    308.53567    4454.7109    10947.951    15582.001   -9.7420384     79316447 
134458800    291.96868    4356.7925    11044.324    15570.826   -10.340608     79316447 
134458900    292.51029     4454.141    10965.173    15589.337   -9.7817117     79316447 
134459000    319.81192     4409.511    11018.053    15613.457   -10.094906     79316447 
134459100    262.20646    4419.9133    11000.136    15572.459   -10.026286     79316447 
134459200    314.21242    4449.9573    10970.935    15603.531    -9.824237     79316447 
134459300    300.76988    4386.4999    11023.452    15584.777   -10.176415     79316447 
134459400    301.40176    4427.0648    10970.166    15572.423   -9.9128454     79316447 
134459500    290.34255    4384.4392    11051.684    15604.887   -10.222392     79316447 
134459600    310.02857    4435.6201    10957.772    15573.599   -9.8771617     79316447 
134459700    327.17251    4392.8537    11016.805     15599.83   -10.133275     79316447 
134459800    270.32515    4393.6611    11025.973    15576.763   -10.154718     79316447 
134459900    337.65519    4411.1694     10987.53    15594.964    -10.01402     79316447 
134460000     285.5807    4380.7172    11020.867     15567.58   -10.234086     79316447 
Loop time of 1.08207 on 1 procs for 8000 steps with 196 atoms

Performance: 798.466 ns/day, 0.030 hours/ns, 7393.204 timesteps/s
99.9% CPU use with 1 MPI tasks x no OpenMP threads

MPI task timing breakdown:
Section |  min time  |  avg time  |  max time  |%varavg| %total
---------------------------------------------------------------
Pair    | 0.39628    | 0.39628    | 0.39628    |   0.0 | 36.62
Bond    | 0.6355     | 0.6355     | 0.6355     |   0.0 | 58.73
Neigh   | 0.0044863  | 0.0044863  | 0.0044863  |   0.0 |  0.41
Comm    | 0.0020278  | 0.0020278  | 0.0020278  |   0.0 |  0.19
Output  | 0.00051713 | 0.00051713 | 0.00051713 |   0.0 |  0.05
Modify  | 0.036022   | 0.036022   | 0.036022   |   0.0 |  3.33
Other   |            | 0.00724    |            |       |  0.67

Nlocal:    196 ave 196 max 196 min
Histogram: 1 0 0 0 0 0 0 0 0 0
Nghost:    0 ave 0 max 0 min
Histogram: 1 0 0 0 0 0 0 0 0 0
Neighs:    3914 ave 3914 max 3914 min
Histogram: 1 0 0 0 0 0 0 0 0 0

Total # of neighbors = 3914
Ave neighs/atom = 19.9694
Ave special neighs/atom = 5.87755
Neighbor list builds = 21
Dangerous builds = 0
velocity        all scale ${TEMP}
velocity        all scale 300
unfix           1

# Second Equilibration
fix             1 all nve
fix             hot all langevin ${TThi} ${TThi}  50.0 599804  tally yes
fix             hot all langevin 320 ${TThi}  50.0 599804  tally yes
fix             hot all langevin 320 320  50.0 599804  tally yes
fix             cold all langevin ${TTlo} ${TTlo} 50.0 27859 tally yes
fix             cold all langevin 280 ${TTlo} 50.0 27859 tally yes
fix             cold all langevin 280 280 50.0 27859 tally yes
fix_modify      hot temp Thot
fix_modify      cold temp Tcold


variable        tdiff equal c_Thot-c_Tcold
thermo_style    custom step c_Thot c_Tcold f_hot f_cold v_tdiff
thermo          4000
run             1600000
Per MPI rank memory allocation (min/avg/max) = 10.44 | 10.44 | 10.44 Mbytes
Step c_Thot c_Tcold f_hot f_cold v_tdiff 
134460000    429.47301    422.10902           -0           -0    7.3639961 
134464000    384.14094    268.00061   -34.782044    43.952041    116.14034 
134468000    336.40915    253.56875   -74.487992    91.183697      82.8404 
134472000    355.49169    387.35078   -129.86986    139.34163   -31.859087 
134476000    435.72963    363.13752   -168.72404    182.16027    72.592104 
134480000    602.69017    245.30809   -202.80651    224.07254    357.38208 
134484000    287.44074    486.99081   -216.58194    231.05363   -199.55007 
134488000    292.98186    229.92041   -239.16815    267.10695    63.061449 
134492000    380.77914    230.68277   -300.18416    300.52121    150.09637 
134496000    371.82551    475.49681   -330.39946    313.06343    -103.6713 
134500000    324.35486    180.56966   -353.36203    372.54911     143.7852 
134504000    318.82232    415.99928   -378.09743    372.54693   -97.176968 
134508000    132.74261    344.98316   -416.49144    443.25974   -212.24055 
134512000     321.5727    284.74624   -491.66164    503.21825    36.826463 
134516000    327.18901    393.86147   -521.58642    530.06754   -66.672452 
134520000    340.46065    329.32104   -557.64041    570.92762    11.139614 
134524000    329.83853    382.57679   -568.03003    596.94947   -52.738263 
134528000    190.85712    311.24291   -616.93314    628.19217   -120.38579 
134532000    337.90242    320.96135   -648.56317    667.62287    16.941075 
134536000    236.75751    362.85861   -703.89657    715.03693    -126.1011 
134540000    466.77993    300.11877   -720.62179    748.08569    166.66116 
134544000    365.86275    455.22777   -782.44183    761.68608   -89.365011 
134548000    707.46825    238.36843   -799.64229    799.52072    469.09982 
134552000    576.81544    227.42844   -843.60246     851.4126      349.387 
134556000    329.08187      322.684    -885.4241     881.5323    6.3978749 
134560000    248.72895    538.85051   -889.97263    934.32309   -290.12156 
134564000    385.63307    156.60397    -933.6345    943.18948     229.0291 
134568000    259.65239    268.90602   -979.77364    989.00993   -9.2536276 
134572000    394.73278    363.17267   -1021.8115    1007.7399    31.560106 
134576000    439.49426    226.50747   -1014.7472    1049.2918    212.98679 
134580000    444.32991    302.74248   -1091.2762     1092.246    141.58744 
134584000    510.59961    469.66907   -1139.4412    1161.8221    40.930533 
134588000     236.7321    261.25848   -1140.1552    1173.0175   -24.526381 
134592000    470.51369    280.23798   -1196.1944    1191.3942    190.27571 
134596000    234.73508    138.01135   -1227.4504    1232.5049    96.723727 
134600000    258.06373    293.79342   -1250.0054    1274.4643   -35.729683 
134604000    290.79679    294.48373   -1269.2252    1289.7205   -3.6869365 
134608000    248.20885    180.31249   -1286.0069     1295.549    67.896356 
134612000    385.73957     282.0886    -1337.118    1351.7791    103.65096 
134616000      308.064    324.90911   -1393.8824    1415.0943   -16.845111 
134620000    235.01852    354.38068   -1441.9864    1421.4741   -119.36216 
134624000    327.72256    364.45022   -1490.0279    1462.2706   -36.727663 
134628000    173.18788    233.26111   -1501.2763    1512.7667   -60.073232 
134632000    201.38837    205.37709   -1556.9568    1571.4966   -3.9887138 
134636000    574.64492      444.422   -1587.7394    1597.9518    130.22292 
134640000     385.6228    294.55589   -1649.0431    1638.5368    91.066911 
134644000    465.37945    244.49696   -1646.6005    1663.0626    220.88249 
134648000    345.69521    252.89617   -1693.9514    1708.5114    92.799046 
134652000    336.62911    142.19654   -1750.2199    1768.3158    194.43256 
134656000    289.73915    507.24012   -1784.1441    1791.8909   -217.50097 
134660000    317.37034    378.25999   -1787.5318    1809.5773   -60.889645 
134664000    352.58492    354.31433   -1857.4119    1857.2893   -1.7294094 
134668000     458.1455    277.54223   -1878.4924    1890.6771    180.60328 
134672000    488.92297    235.25634    -1914.164     1927.929    253.66662 
134676000    332.51682     318.9568   -1930.3974    1957.9804    13.560022 
134680000    255.32403     200.5269   -1941.9285    1955.8956    54.797132 
134684000    202.63808    197.93914   -1986.2705    2003.2799     4.698945 
134688000    274.65732    248.46131   -1973.1897    2025.1602    26.196012 
134692000    453.00125     366.8329   -2026.1542    2044.7019    86.168348 
134696000    435.81944    408.00368   -2044.3085     2043.962    27.815761 
134700000    492.81257    350.93926    -2070.048    2078.4111    141.87331 
134704000    287.20504    243.66278   -2100.0044    2134.4899    43.542267 
134708000    337.17174    343.74712   -2179.5206    2197.0089   -6.5753811 
134712000    163.14372    251.59709   -2212.7472    2212.5166   -88.453364 
134716000    264.51295    227.40313   -2243.6424    2248.3924    37.109812 
134720000    216.09805    433.63176    -2284.861    2305.6138   -217.53371 
134724000    355.41879    450.89915   -2334.2603    2342.7297   -95.480363 
134728000    423.01668    352.89487   -2366.2157    2365.6674    70.121819 
134732000    291.38665    333.67565   -2401.1536    2404.0601   -42.289005 
134736000    351.64154    427.90266   -2409.9568    2427.9969   -76.261116 
134740000    419.97026    168.11276   -2444.2256     2462.875     251.8575 
134744000    422.52218    568.56475    -2475.499    2493.9563   -146.04258 
134748000    188.94267    249.20441   -2457.9149    2489.4629   -60.261735 
134752000    344.42821    423.95057   -2497.4252    2513.1333   -79.522363 
134756000    330.73997    309.86139   -2573.5863    2565.9482    20.878583 
134760000    381.01414    321.97687   -2614.4018    2616.4599     59.03727 
134764000    387.79016    287.37424        -2651    2668.7148    100.41591 
134768000    279.40283    266.64467   -2722.7799    2764.6786    12.758162 
134772000     271.9466    350.43569   -2768.6532    2792.5839   -78.489092 
134776000    244.64357    296.66814   -2798.0249    2806.2332   -52.024572 
134780000    325.85942    239.46612    -2796.728    2827.0947    86.393299 
134784000    289.23766    380.37384   -2820.3523    2819.5915   -91.136186 
134788000    160.63263    377.49337   -2858.3599    2857.9179   -216.86074 
134792000     238.6535     417.1419   -2905.4518    2923.5842   -178.48841 
134796000    226.06549    341.10747   -2939.9171    2944.1526   -115.04198 
134800000    385.88512    273.20873   -2982.1769    2992.3762    112.67639 
134804000    156.81213    494.98834   -3058.6394    3061.6211   -338.17621 
134808000    300.31244    393.86402   -3092.9387     3126.117   -93.551582 
134812000    174.63953    391.36925   -3113.3587    3151.2797   -216.72973 
134816000    326.13481    258.96412   -3143.6119     3159.916    67.170689 
134820000    395.99488    352.36204   -3147.0899    3178.2733    43.632835 
134824000    324.09116    197.24804   -3180.8029     3178.448    126.84313 
134828000    634.44175    310.30151   -3208.8062    3223.5504    324.14023 
134832000    302.56849    291.11744   -3246.9197    3263.7758    11.451049 
134836000      378.685    306.67229    -3287.522    3258.8714     72.01271 
134840000     208.0257    269.35162   -3295.7047    3314.7173    -61.32592 
134844000    358.83032    303.88977   -3321.7125    3345.2847    54.940557 
134848000    245.99236    339.50537   -3366.2107    3378.0003   -93.513005 
134852000    535.51432    353.95468   -3387.8288    3401.3692    181.55965 
134856000    427.59558    333.51259   -3414.9381    3425.7073    94.082999 
134860000    333.15178    485.79787   -3428.2647     3425.747    -152.6461 
134864000    290.24153    403.15957   -3463.8561    3482.1589   -112.91804 
134868000    432.71726    428.54198   -3468.2029    3471.6243    4.1752806 
134872000    380.76011    290.99749   -3491.6368    3498.7345    89.762619 
134876000    271.66953    375.22342   -3526.8455    3536.7549   -103.55389 
134880000    234.62148    280.09893   -3555.4013    3562.2402   -45.477447 
134884000    276.71756    379.46352   -3588.3245    3595.2394   -102.74595 
134888000    335.56099     382.8218   -3635.8453    3647.7861    -47.26081 
134892000    217.10017     276.9495   -3661.9691    3695.4162   -59.849333 
134896000    341.33062     248.7474   -3677.6965    3692.8127    92.583221 
134900000    297.04082    226.31495   -3702.1168    3711.4825    70.725871 
134904000    593.25825     359.5724   -3734.6824    3733.3019    233.68584 
134908000    277.88876    319.82173   -3812.7696    3818.2563   -41.932968 
134912000    432.27317    430.31105   -3828.1513    3843.8503    1.9621198 
134916000    353.19009    204.35901   -3816.0344     3854.487    148.83108 
134920000    468.42216    412.42403   -3878.0819    3884.7606     55.99813 
134924000    210.11474    363.58878   -3905.6986    3918.4514   -153.47404 
134928000    394.85782    377.51113   -3968.4408    3994.7732    17.346689 
134932000    430.73316    288.43162   -4003.9735    4025.2503    142.30153 
134936000     360.0849    274.05779   -4046.3541     4081.107    86.027113 
134940000    305.00097    323.09807   -4127.6036    4121.9677   -18.097104 
134944000    242.66573    211.53254   -4173.0982    4218.1005    31.133187 
134948000    600.45423    203.99278   -4223.7974     4232.164    396.46145 
134952000    289.40412    239.41446   -4211.4412    4216.8691    49.989661 
134956000    187.24234    498.08282   -4211.3002     4239.254   -310.84048 
134960000    423.62252    329.33019   -4261.7198    4262.8195    94.292322 
134964000    330.45567    317.35096   -4280.3976    4282.2278    13.104706 
134968000    229.94382    330.48584   -4275.5606    4281.7109   -100.54202 
134972000    228.67694    300.83577   -4330.9031     4362.089   -72.158827 
134976000    346.25676    348.93925   -4401.7919    4411.0783   -2.6824822 
134980000    345.59764    297.10012   -4413.8738    4420.4219    48.497519 
134984000    371.61217    367.86078    -4453.827    4461.5176    3.7513851 
134988000    348.38186    506.25745   -4458.9767    4488.4504    -157.8756 
134992000    264.66846    535.48661   -4499.6017    4502.6004   -270.81815 
134996000    423.50305     307.8646   -4519.3897    4524.9812    115.63845 
135000000    490.01303    176.09303   -4565.5626    4586.4448       313.92 
135004000    329.90327    233.56804   -4606.9513    4631.9949    96.335223 
135008000    373.85157    330.63852   -4668.7581    4680.8798    43.213047 
135012000    435.74577    301.77382   -4724.1742    4721.9463    133.97195 
135016000    467.67198    443.88329   -4767.4491    4772.3456    23.788685 
135020000    271.29347    304.52441   -4805.8891    4801.9817   -33.230937 
135024000    289.65265    491.67314   -4829.5434    4838.5804   -202.02049 
135028000    477.79204    471.79541   -4872.8421    4891.4545    5.9966306 
135032000    456.20119    330.45838   -4926.2254    4940.9215     125.7428 
135036000    340.23186    345.69298    -4951.632    4970.0248   -5.4611248 
135040000    344.80783    192.42136   -4998.1668     4998.895    152.38647 
135044000    292.41282     357.0947     -5031.13    5009.2901   -64.681886 
135048000    314.01223    224.25829   -5018.7275    5040.5569     89.75394 
135052000    299.71699    351.53669   -5037.4893    5057.8602   -51.819694 
135056000    266.07882    336.82386   -5069.3263    5077.8108   -70.745035 
135060000    447.15549    322.78189   -5113.6844    5128.4292     124.3736 
135064000    384.58992    262.94877   -5170.1465    5196.1863    121.64114 
135068000    381.40926    291.56093   -5188.8674    5236.6486    89.848332 
135072000    369.05978    274.89455   -5243.8995    5259.6434     94.16523 
135076000    458.63461    439.61913   -5327.4623    5323.8252    19.015472 
135080000     287.6782    451.90286   -5343.6219    5364.3176   -164.22466 
135084000    397.06528    276.57378   -5351.6388    5382.5792    120.49151 
135088000    485.21514    333.79936   -5392.6619    5396.3067    151.41578 
135092000    370.42006    292.42718   -5440.3015    5445.5983     77.99288 
135096000    363.35603    199.23816   -5480.2361    5508.8273    164.11787 
135100000    439.09864    433.58332   -5515.1793    5519.7727    5.5153245 
135104000    481.49722    365.08728   -5550.7683    5565.0231    116.40994 
135108000    374.96724    454.94365   -5599.1876    5598.0503   -79.976409 
135112000    387.27491    404.81004   -5612.4867    5645.4622   -17.535131 
135116000    308.94938    385.59321   -5645.6752    5644.6205    -76.64383 
135120000    447.24232    306.32892   -5667.4206    5693.3708     140.9134 
135124000    342.34626    210.26133   -5722.8641    5769.9215    132.08493 
135128000    603.32435    340.94631   -5774.3327    5814.2333    262.37804 
135132000    197.12008    145.13305   -5805.6106    5845.8646    51.987022 
135136000    280.62273    343.78536   -5874.3999    5889.8019   -63.162628 
135140000     237.9034    409.45202   -5905.2862     5957.903   -171.54863 
135144000    269.82977    326.54461   -5944.7493    5971.1432   -56.714845 
135148000    399.80116    410.09852   -5981.8269     6004.793   -10.297359 
135152000    654.87647    278.34719   -6033.3418     6027.301    376.52928 
135156000    282.10246    266.28106   -6094.4202    6101.4786    15.821399 
135160000    299.03022    262.86669   -6142.4842    6168.3973    36.163533 
135164000    348.06318    239.75427   -6176.0864    6183.9724    108.30891 
135168000    498.19126    303.20651   -6187.8439    6192.2097    194.98475 
135172000      597.129    377.98234   -6206.1152    6242.5622    219.14665 
135176000      273.919     442.3228   -6231.0935      6258.97    -168.4038 
135180000    432.12643    495.62318   -6276.6313    6294.6414    -63.49675 
135184000     324.1803    332.42283   -6321.0803    6318.7322   -8.2425225 
135188000    397.73666    373.05059    -6362.594    6373.8729    24.686069 
135192000    281.50392    408.08326   -6388.2604    6391.5349   -126.57934 
135196000    336.73365    214.96112   -6384.4508    6422.5841    121.77253 
135200000    313.99093    224.75634   -6421.3411    6443.8794    89.234593 
135204000    237.32933    341.47066   -6473.8649    6468.0876   -104.14133 
135208000    548.17928    307.66468   -6491.2081    6526.6433     240.5146 
135212000    351.48126    213.58073   -6536.4581    6534.5921    137.90052 
135216000    353.40947    439.57709   -6578.3135    6606.0307   -86.167619 
135220000     271.6835    336.61236   -6601.6179     6612.035   -64.928859 
135224000    492.42464    226.20676   -6678.3276    6693.4833    266.21789 
135228000    388.54235    321.05302   -6710.6432    6731.8961    67.489326 
135232000    293.83744     446.6177   -6743.9134    6741.3524   -152.78025 
135236000    353.96606    291.10414   -6755.1223    6781.5888    62.861925 
135240000    423.87758    362.39558   -6767.2617     6780.983    61.482002 
135244000    429.43114    202.30823   -6808.7674    6832.5111    227.12291 
135248000    350.27958    374.13498    -6860.556    6882.7751   -23.855391 
135252000    244.23095    436.72428   -6903.0444    6922.9723   -192.49333 
135256000    376.14063    559.01378   -6936.5735    6964.7843   -182.87314 
135260000    384.43613    370.91232   -6979.3672    6996.2581    13.523815 
135264000    193.33094    207.53772    -7000.235     7013.931   -14.206779 
135268000    165.38021    173.50191   -7038.4512    7032.6331   -8.1216934 
135272000    191.15662    281.80247   -7018.0661    7055.5758   -90.645852 
135276000    406.09573    198.31814   -7046.8197    7085.6739     207.7776 
135280000     549.6773     371.0265   -7096.2296    7113.2701     178.6508 
135284000    558.93082    320.27109   -7126.8611    7127.8257    238.65973 
135288000    453.52209    448.30865    -7181.809    7187.9895    5.2134379 
135292000    273.35721    271.63349   -7221.2501    7241.9728    1.7237155 
135296000    434.97144    579.44251   -7262.2686    7285.3881   -144.47107 
135300000    330.13204    459.26429    -7295.002     7324.359   -129.13225 
135304000    302.74498    406.89531   -7325.3314      7334.74   -104.15033 
135308000    334.21514    437.92467   -7339.6896    7354.4147   -103.70953 
135312000    364.41071     307.8692   -7352.1167    7383.6423    56.541518 
135316000    299.51503    222.64431   -7391.2056    7418.8521     76.87072 
135320000    268.33053    198.82447     -7432.98    7449.3203    69.506057 
135324000    433.71684    259.17709   -7466.5521    7456.4583    174.53976 
135328000    350.65415    559.95625   -7516.5507    7520.1275    -209.3021 
135332000    237.39778    209.46904   -7566.0076    7570.8207     27.92874 
135336000     426.8794    277.79249   -7575.5173    7575.1772    149.08691 
135340000    368.58468    409.65427   -7551.1728    7576.2788   -41.069591 
135344000     395.8184    319.69544    -7573.536     7617.788    76.122966 
135348000     391.6524    350.90312   -7650.9756     7639.436    40.749277 
135352000    178.53573    237.32913   -7684.2673    7707.7886     -58.7934 
135356000    447.24095    235.66755   -7733.5425    7742.8488     211.5734 
135360000    319.43155    283.00286    -7742.936     7759.134    36.428683 
135364000    394.35041    558.59414   -7760.7298     7770.522   -164.24374 
135368000    391.77791    274.24318   -7790.9851    7800.7618    117.53473 
135372000      296.588      329.497   -7803.5419    7828.4075   -32.909002 
135376000    290.68688    370.08229    -7851.737    7866.4288   -79.395417 
135380000    604.67168    251.04705   -7878.3578    7873.5002    353.62463 
135384000    325.11843    500.18452   -7888.9702    7915.4362   -175.06609 
135388000    438.78879    297.06942   -7937.3478    7975.4684    141.71936 
135392000    420.23977    333.58094   -7989.1014    8005.1084    86.658838 
135396000    373.17891      275.838   -8025.4973    8042.9618    97.340911 
135400000    300.30481    311.88442   -8065.0131    8102.9026   -11.579609 
135404000    479.72256    329.95917   -8123.6265    8115.6043    149.76339 
135408000    426.19289    450.28323   -8142.1811    8160.3318   -24.090337 
135412000     517.5568    228.58386   -8171.0427    8188.1969    288.97294 
135416000    403.35587    229.71427   -8208.0359    8220.8383    173.64161 
135420000    471.57867    403.26227   -8258.0576    8250.4276    68.316396 
135424000    426.04074     270.7248   -8296.1235    8325.2723    155.31594 
135428000     538.7083    271.77891   -8340.1657    8360.0373     266.9294 
135432000    216.04746     254.6189   -8409.0385    8428.9985   -38.571441 
135436000    366.55288    330.44364   -8432.9288    8441.9653    36.109245 
135440000    261.68952    244.74921    -8483.788    8492.8342    16.940317 
135444000    364.53027    401.42921   -8538.2911    8518.6253    -36.89894 
135448000     455.7284    256.26368   -8576.2507    8566.7886    199.46473 
135452000    449.46605    284.34916   -8597.2408    8613.3715    165.11689 
135456000     464.9018    206.61804   -8645.2562     8674.063    258.28377 
135460000    539.22455    374.48115   -8676.8013    8698.0056     164.7434 
135464000    244.17004    292.24964   -8712.5347    8739.4775   -48.079601 
135468000    321.79306    217.77262   -8748.8035    8746.5463    104.02044 
135472000    319.40148    364.56132   -8783.5818    8808.7554   -45.159834 
135476000    303.05652    547.04226   -8857.3655    8863.5049   -243.98574 
135480000    516.31356    276.55337   -8903.1839    8922.7509    239.76018 
135484000    354.94023    350.74177   -8972.9557    8984.3897    4.1984642 
135488000    564.06871    430.60955   -9013.1452    8993.6237    133.45916 
135492000    405.12263    294.25611   -9064.5511    9055.5344    110.86652 
135496000     415.9079    211.59925   -9086.8493    9117.7065    204.30865 
135500000    441.64234    509.49853   -9144.8393    9155.5242   -67.856192 
135504000     247.1639    226.21464   -9177.0964    9186.4726    20.949267 
135508000    527.51958    271.63772   -9211.3067    9250.3005    255.88185 
135512000    285.27515    386.72039   -9257.2935    9274.8669   -101.44524 
135516000    409.24762    313.80359   -9278.2348    9303.9208    95.444028 
135520000    318.66944    177.16635   -9303.3383    9341.7178    141.50309 
135524000    326.48852    326.91946   -9363.3528    9380.9485  -0.43094279 
135528000     197.7159    351.62178   -9362.5177    9396.4339   -153.90588 
135532000    488.22028    327.44888   -9430.8144    9444.0826     160.7714 
135536000    267.44934    336.45539    -9446.076    9469.8901    -69.00605 
135540000    439.17623    308.63834    -9487.554    9524.5602    130.53789 
135544000    436.08852    184.50792   -9524.9652    9555.0717     251.5806 
135548000    229.96903    353.52545   -9549.6578    9568.2767   -123.55642 
135552000    390.42753     256.8628   -9590.1982    9596.9235    133.56473 
135556000    261.58029    402.33656   -9619.2541    9626.2896   -140.75628 
135560000    355.37339    372.58142   -9670.1025    9677.3923   -17.208031 
135564000    431.97509    376.22127   -9717.8833    9747.3698    55.753821 
135568000     225.2493     225.9215   -9778.3837    9798.4977  -0.67220202 
135572000    284.85452    268.12016   -9800.9075    9831.0364    16.734355 
135576000    344.13491     404.2473   -9846.7835    9874.5209   -60.112395 
135580000    399.60602    423.90711    -9870.938    9904.3319   -24.301081 
135584000    345.12833    295.92914   -9917.9158    9953.9059    49.199187 
135588000    424.33751    541.03767   -9978.0621    9986.3661   -116.70016 
135592000    322.95817    203.35223   -10008.432    10013.831    119.60595 
135596000    261.38378    350.94474    -10036.81    10039.747   -89.560952 
135600000    345.98635    293.30036   -10050.886    10063.474    52.685987 
135604000    231.34185    502.93367   -10098.759    10111.184   -271.59182 
135608000    383.03429    294.71308   -10144.436    10149.558    88.321213 
135612000    316.96139    523.47043   -10190.436    10202.353   -206.50904 
135616000    246.29115     276.3841   -10243.932    10262.924   -30.092956 
135620000     328.2724    276.65711   -10301.441     10330.64    51.615286 
135624000    228.03387    227.66779   -10352.004    10375.283   0.36608641 
135628000    357.40585    337.48539   -10368.495    10364.657    19.920459 
135632000    337.81262    365.56842   -10410.046    10445.808   -27.755806 
135636000    350.07168    214.00005   -10423.351    10456.207    136.07162 
135640000    362.68216    253.12305    -10469.02    10486.322    109.55912 
135644000    304.08651    196.49059   -10513.884    10514.624    107.59592 
135648000    183.41086    333.37128   -10536.232    10563.243   -149.96042 
135652000    376.57382      395.879   -10573.351    10566.776   -19.305178 
135656000    389.93445    393.46984   -10583.943    10599.896    -3.535389 
135660000    268.63173    406.86339   -10598.007    10632.667   -138.23166 
135664000    363.80185    312.18993   -10636.487    10662.312    51.611916 
135668000    290.90809    261.75323    -10678.58     10687.18    29.154858 
135672000    444.95443    288.71929   -10728.759    10725.476    156.23514 
135676000     446.7732     332.1065   -10751.041    10750.586     114.6667 
135680000     202.9716    310.72915   -10733.053    10779.914   -107.75755 
135684000    430.44948    268.30978   -10784.487    10800.931     162.1397 
135688000    351.80202    280.14325   -10823.472    10848.983    71.658768 
135692000     299.3029    255.46432   -10837.438    10865.956    43.838575 
135696000    169.00005    217.94054   -10858.714    10891.169   -48.940492 
135700000    338.78838    490.12069   -10886.603    10907.446   -151.33232 
135704000    469.09133    402.22662   -10909.631    10940.207    66.864711 
135708000    388.20543    305.60526    -10968.62    10972.712    82.600163 
135712000     376.2646    291.42918   -10973.982    11005.505    84.835423 
135716000    345.75781     436.5922    -11019.65    11021.057   -90.834391 
135720000     430.1604     384.9353   -11054.321    11081.958    45.225102 
135724000    381.42754    303.17298   -11081.714    11104.758    78.254561 
135728000     352.0542    355.26654   -11123.518    11144.996   -3.2123361 
135732000    327.62569    224.13365   -11154.568    11165.637    103.49204 
135736000    212.69795    200.97434   -11186.712    11210.753    11.723605 
135740000    213.92751    533.37055   -11216.885    11240.453   -319.44304 
135744000    207.80854    234.01227   -11242.729    11281.675   -26.203728 
135748000    403.06858    469.75846   -11283.053     11303.91   -66.689879 
135752000    534.33496    249.44076   -11325.545    11363.213     284.8942 
135756000    430.04457      187.182   -11386.006    11409.399    242.86257 
135760000    320.89748    250.37359   -11417.025    11432.354    70.523888 
135764000    312.86301    411.16342   -11456.557    11464.454    -98.30041 
135768000    303.42215    428.25885   -11489.844    11507.894    -124.8367 
135772000    270.07107    359.01161     -11523.4    11541.944   -88.940541 
135776000    228.07758    449.30459   -11549.895    11569.241     -221.227 
135780000    390.04303     192.2904   -11615.251    11658.465    197.75263 
135784000    450.64755    330.47019   -11627.929    11672.985    120.17737 
135788000    494.30682    227.63407   -11650.184    11675.027    266.67275 
135792000    246.31407    237.92266   -11693.564    11734.305    8.3914136 
135796000    222.14803    272.86172   -11736.639    11765.321   -50.713694 
135800000    471.84067    488.71387   -11762.816    11788.897     -16.8732 
135804000    307.69872    359.44966   -11779.055    11808.642   -51.750944 
135808000    327.89992    198.65864   -11824.642    11851.623    129.24128 
135812000    334.81106    454.81274   -11839.919    11853.143   -120.00168 
135816000    466.44028    275.93219    -11886.07    11898.583    190.50809 
135820000    501.64093    223.59049   -11914.388     11953.61    278.05044 
135824000    410.76235    430.31105   -11972.142    11988.753   -19.548704 
135828000    408.01191    228.12558   -11985.398    12013.568    179.88632 
135832000    487.64347    422.01997   -12019.641    12044.773    65.623498 
135836000    215.07489    260.92265    -12025.32    12062.778   -45.847769 
135840000    461.07419    315.12594   -12068.248    12087.568    145.94825 
135844000    469.53631    445.40433   -12121.557    12125.586    24.131981 
135848000    432.71795    213.73421   -12164.545    12200.035    218.98374 
135852000     360.8238    273.98325   -12226.594    12232.582     86.84055 
135856000     486.4542    306.71213    -12259.57    12283.601    179.74208 
135860000     360.4058    140.78951   -12298.413    12343.983    219.61628 
135864000    166.03332    329.65926   -12333.496    12356.818   -163.62594 
135868000    407.23291    404.09668   -12377.098    12401.524    3.1362284 
135872000    544.54499    415.05225   -12423.755    12445.028    129.49274 
135876000     274.7268    299.39282   -12492.633     12504.38   -24.666027 
135880000    423.03941    545.31407   -12527.271    12542.261   -122.27466 
135884000    218.74989    308.99924   -12577.437    12625.089   -90.249342 
135888000    288.25416    307.81299    -12610.68    12638.297   -19.558839 
135892000    349.95226    266.87852   -12666.443    12685.642     83.07374 
135896000    426.34118    504.97024   -12709.457    12726.069   -78.629059 
135900000    459.90601    497.14261   -12740.242    12774.171   -37.236601 
135904000    427.99921    317.93349   -12782.755    12804.304    110.06572 
135908000    235.60269    271.93837   -12799.245    12843.942   -36.335676 
135912000    279.13706    631.23306   -12825.748    12842.915   -352.09599 
135916000    290.24049    285.65692   -12871.129    12875.765    4.5835608 
135920000    354.54792    317.53828   -12920.624     12941.55     37.00964 
135924000    592.68755     252.2655   -12935.316    12932.049    340.42205 
135928000    442.31642    347.64865   -12975.229    12970.323    94.667766 
135932000    288.10045     298.3377   -12997.147     13033.34   -10.237248 
135936000     272.2108    433.24112   -13001.853    13040.743   -161.03032 
135940000    518.40414    405.40325   -13021.221    13057.757    113.00089 
135944000    424.19822    395.19751   -13059.333    13083.714    29.000711 
135948000    492.94192    193.68373   -13063.899     13073.42    299.25819 
135952000    239.94575    401.92044   -13097.147    13115.143   -161.97469 
135956000     303.9741     380.4569   -13145.929    13170.442   -76.482806 
135960000    381.95239    337.39327   -13179.418    13195.939    44.559125 
135964000    319.71527    401.00183   -13222.639    13233.136   -81.286552 
135968000    411.89266    235.27371   -13256.171    13270.825    176.61894 
135972000    253.71259     372.9412   -13273.493    13298.681   -119.22861 
135976000    235.84345    344.28495   -13298.187    13326.021   -108.44151 
135980000    401.98418    297.06023   -13327.965     13344.84    104.92395 
135984000    343.30408    196.43871   -13385.772    13426.485    146.86538 
135988000    181.81478    428.70871   -13419.691    13458.784   -246.89394 
135992000    508.72026    357.79785   -13473.337    13472.646    150.92242 
135996000    309.45177     243.8188    -13479.69    13491.673    65.632971 
136000000    399.30325    347.27852   -13502.861    13513.394    52.024723 
136004000    400.17488    266.93341   -13504.609    13532.632    133.24147 
136008000    382.75773    337.85165   -13567.393    13570.349    44.906083 
136012000    361.02742     475.1238   -13596.422    13628.991   -114.09637 
136016000    477.66605    270.03423   -13615.261    13640.899    207.63182 
136020000    325.99549    490.37531   -13644.658    13651.961   -164.37982 
136024000    538.70404    268.44065   -13686.398    13724.831    270.26339 
136028000     524.9418    232.07844   -13729.194    13734.782    292.86336 
136032000    524.38432    397.23089    -13766.51    13758.885    127.15343 
136036000    401.52011    447.88945   -13800.034    13823.936    -46.36934 
136040000    238.07147    532.31403   -13849.344    13853.515   -294.24255 
136044000    303.54174    357.09506   -13869.139    13892.346   -53.553323 
136048000    584.96189    353.82247   -13919.548     13921.54    231.13942 
136052000    306.79187    282.47747   -13954.598    13967.768    24.314397 
136056000     235.5004    405.96445     -13976.6    14008.897   -170.46405 
136060000    252.02394    242.49817   -13995.018    14034.022     9.525777 
Loop time of 257.341 on 1 procs for 1600000 steps with 196 atoms

Performance: 671.483 ns/day, 0.036 hours/ns, 6217.433 timesteps/s
99.9% CPU use with 1 MPI tasks x no OpenMP threads

MPI task timing breakdown:
Section |  min time  |  avg time  |  max time  |%varavg| %total
---------------------------------------------------------------
Pair    | 78.463     | 78.463     | 78.463     |   0.0 | 30.49
Bond    | 126.39     | 126.39     | 126.39     |   0.0 | 49.11
Neigh   | 0.71015    | 0.71015    | 0.71015    |   0.0 |  0.28
Comm    | 0.41942    | 0.41942    | 0.41942    |   0.0 |  0.16
Output  | 0.0041432  | 0.0041432  | 0.0041432  |   0.0 |  0.00
Modify  | 49.886     | 49.886     | 49.886     |   0.0 | 19.39
Other   |            | 1.47       |            |       |  0.57

Nlocal:    196 ave 196 max 196 min
Histogram: 1 0 0 0 0 0 0 0 0 0
Nghost:    0 ave 0 max 0 min
Histogram: 1 0 0 0 0 0 0 0 0 0
Neighs:    3914 ave 3914 max 3914 min
Histogram: 1 0 0 0 0 0 0 0 0 0

Total # of neighbors = 3914
Ave neighs/atom = 19.9694
Ave special neighs/atom = 5.87755
Neighbor list builds = 3319
Dangerous builds = 0
unfix 1


# PRODUCTION

fix             1 all nve
fix             hot all langevin ${TThi} ${TThi}  50.0 52804  tally yes
fix             hot all langevin 320 ${TThi}  50.0 52804  tally yes
fix             hot all langevin 320 320  50.0 52804  tally yes
fix             cold all langevin ${TTlo} ${TTlo} 50.0 297859 tally yes
fix             cold all langevin 280 ${TTlo} 50.0 297859 tally yes
fix             cold all langevin 280 280 50.0 297859 tally yes
fix_modify      hot temp Thot
fix_modify      cold temp Tcold


variable        tdiff equal c_Thot-c_Tcold
thermo          4000

dump gigo all atom 40000 dump.cords_xyz.dat
dump_modify gigo scale no
dump vfgigo all custom 4000 dump.velo.dat id vx vy vz fx fy fz

# thermal conductivity calculation
# # reset langevin thermostats to zero energy accumulation
#
compute         ke all ke/atom
variable        temp atom c_ke/1.5/0.0019872

fix             ave all ave/time 100 40 4000 v_tdiff ave running
thermo_style    custom step temp c_Thot c_Tcold f_hot f_cold v_tdiff f_ave

#compute         layers all chunk/atom bin/1d z lower 0.05 units reduced
compute         layers all chunk/atom bin/1d z lower ${dz} units box
compute         layers all chunk/atom bin/1d z lower 4.1310649555631 units box
fix             2 all ave/chunk  100 40 4000 layers v_temp file profile.langevin

dump mydump2 all xyz 40000 prod-coord.xyz
dump_modify mydump2 element C S S

run             32000000
Per MPI rank memory allocation (min/avg/max) = 11.82 | 11.82 | 11.82 Mbytes
Step Temp c_Thot c_Tcold f_hot f_cold v_tdiff f_ave 
136060000    271.26895    252.02394    242.49817           -0           -0     9.525777            0 
136064000    255.41662    308.40103    270.94597   -47.605226    46.746979     37.45506    40.604139 
136068000    284.28738    481.73738    330.52511   -79.575068    60.968222    151.21226    46.003601 
136072000    281.72487    437.71541    343.98727   -114.89121    97.577814    93.728144    51.385515 
136076000    259.47857    400.71886    215.27003   -142.78089    140.81864    185.44883    43.014725 
136080000    274.56729    308.23396    220.17191   -215.01322    204.14316    88.062054    47.778189 
136084000    277.78594    215.42362    296.06607   -233.75758    243.64602   -80.642449    46.280752 
136088000    282.21344    332.21626    306.07668   -271.54783    266.83581    26.139576    49.013263 
136092000    276.03913    396.91589    351.77538   -319.06932    300.02433    45.140506     45.58029 
136096000    296.08132    531.61485    379.00106   -359.14744    321.51923    152.61379     44.77584 
136100000    260.83135    349.05148    270.87014   -410.43948    409.64548    78.181344    46.083365 
136104000    269.88051    168.93929    274.34833   -445.99076    446.24876   -105.40905    44.063625 
136108000    269.31998     517.1433    194.41045   -503.85438    501.11943    322.73285    43.856679 
136112000    297.99976    487.95282     294.0013   -549.72185    531.93432    193.95152    42.997564 
136116000    292.38668    403.03205    233.64815   -580.73858    568.62725     169.3839    42.399729 
136120000     293.5569    461.56769     449.5186   -620.03823    595.23929     12.04909    41.461529 
136124000    309.03971    390.19797    468.42326   -672.79193    651.56467   -78.225285    37.515558 
136128000    334.90115    278.78626    401.84319   -722.19808    688.08969   -123.05692    37.986265 
136132000    294.62096     288.2287    256.94462   -738.51025    724.47327    31.284073     37.09759 
136136000    287.68268     522.3196    347.37432   -784.00551    749.90926    174.94528    37.024845 
136140000    292.03313    445.49392    285.51879   -810.08272    794.71851    159.97513    37.318392 
136144000     260.8139    326.99063    283.84518   -864.20983    847.18673    43.145452    35.519555 
136148000     289.1473    315.21465    364.06512   -922.86312    906.51564    -48.85047    35.621387 
136152000    243.02389    359.67823    323.45514    -930.8641    926.50091     36.22309    35.875367 
136156000    300.80414    476.39233    519.21503   -984.23647    948.94548   -42.822699    35.509461 
136160000    272.10734    352.71762    429.06754   -1026.0711    1008.0062   -76.349926    34.372243 
136164000    310.64326    449.59628      307.655   -1081.9649    1041.5317    141.94128    35.163969 
136168000    287.37681    304.85918    321.32068   -1054.1409    1051.3233   -16.461496    35.998462 
136172000    276.89731    432.18361    437.27047   -1088.6203     1086.144   -5.0868591    36.729691 
136176000    288.25424    288.80068    247.83331   -1139.3322    1127.3185    40.967366    35.872019 
136180000    263.39587    292.45891    282.85745   -1167.8368    1160.5033    9.6014647    36.721773 
136184000    291.47153    505.25553    376.78338   -1213.7523    1183.5755    128.47216    36.642305 
136188000    260.92827    208.84075    190.21393   -1245.4065    1246.8169    18.626818     36.36992 
136192000    262.34623    363.47262     287.9609   -1274.8118    1267.0068    75.511729    36.237425 
136196000     253.2277    712.46169    263.39404   -1275.4675    1282.9074    449.06765    37.174525 
136200000    280.44406    524.39049    321.67666   -1299.8414    1294.7575    202.71384      36.3645 
136204000    265.94238    284.61531    241.45092   -1315.6389    1322.5094    43.164388    35.440049 
136208000    287.87149    298.60753    302.79266   -1357.3728    1353.9026   -4.1851252    34.209219 
136212000    290.45164    317.04907    387.58319   -1391.1792    1371.8447   -70.534115    34.065804 
136216000    261.49951    525.75327    251.47224   -1438.0336    1443.1203    274.28102    34.261255 
136220000     266.4674    404.25012    256.92262   -1478.5437    1479.4051     147.3275    35.060075 
136224000    274.70755    274.25431     396.3431   -1531.6107    1523.1634   -122.08878    33.876454 
136228000    302.63138    519.51166    374.96951   -1539.2403    1506.5101    144.54215     33.30307 
136232000    296.14373    274.58696    362.63448   -1600.6195    1573.2671   -88.047521    33.526687 
136236000    270.97367    252.02971    276.56797   -1625.3528    1618.1062   -24.538263    33.760098 
136240000    255.92538    219.17842    253.68671   -1644.4141    1658.4796   -34.508297    33.203667 
136244000    294.44217    222.88148    278.62266   -1685.9834    1661.4173    -55.74118    33.400642 
136248000    282.16033    331.39673    377.35219   -1717.9523    1710.9405   -45.955451     33.50497 
136252000    270.18325    359.43235    326.10243   -1750.3037    1747.8879    33.329916     33.14633 
136256000    272.51226    150.13228    471.17254   -1732.7065    1726.0617   -321.04026    32.103428 
136260000    282.64028    328.50344    458.75338   -1789.4483     1774.759   -130.24994    31.740155 
136264000    297.18002    299.69432    505.04722   -1831.1454    1813.3087   -205.35291    31.958808 
136268000    251.31291    295.33631    221.83501   -1857.7038    1850.7265    73.501308    32.106386 
136272000    269.33607    338.79119    308.29535   -1874.9462    1863.4742    30.495837    31.929784 
136276000    297.05553    386.15474    286.19682   -1918.1382     1886.692     99.95792    31.910073 
136280000    263.69941    359.39019    274.77803   -1950.4482    1944.3755    84.612158    31.486182 
136284000     268.1232     336.0612    290.16755   -1982.5754    1980.4888    45.893641    31.737761 
136288000    271.24672    256.02153    369.18498   -2015.3591    1987.8563   -113.16345    32.431537 
136292000    268.40265    224.73393      258.877   -2038.7226    2054.8203   -34.143072    32.490166 
136296000    266.45227    414.92229    369.27177   -2084.5898    2073.8855    45.650512    32.172947 
136300000     265.7084    201.34846    334.06958   -2094.7645     2100.242   -132.72112    32.322895 
136304000    274.86087    419.98929    387.38729   -2169.3466    2159.6276    32.602005    31.959098 
136308000    282.11595    442.20869    278.51779   -2164.3312    2169.6868     163.6909    31.638919 
136312000    349.80171    316.61723    276.02961   -2252.5123     2198.573    40.587621    31.472553 
136316000    307.38817    340.48883    410.17779   -2288.0186    2268.7849   -69.688955    31.775923 
136320000    276.81373    306.74668     258.7358   -2317.1466    2297.7023    48.010875    32.098092 
136324000    279.82785    290.51801    434.92893   -2385.0424    2368.1411   -144.41092    32.114345 
136328000    284.02915    397.35356    192.68724   -2409.5157    2405.6732    204.66631    32.394572 
136332000    268.53055    396.52239    334.00835   -2453.9296    2447.4836    62.514034    32.566842 
136336000    301.83717    470.93962    271.62388   -2504.0537    2477.7085    199.31574    32.077682 
136340000     278.4981    499.73945    245.54147   -2544.1412    2533.8016    254.19798    31.776216 
136344000    271.51201    344.89638    318.62331   -2575.6189    2557.5868    26.273072    31.626063 
136348000    274.24688    304.29692    238.55708   -2593.4295    2591.2358    65.739841    31.375562 
136352000    288.72515    547.83455    264.50815   -2645.3532    2616.4372     283.3264    31.422063 
136356000    238.17445     337.7288    286.40427   -2674.4031    2695.3338    51.324532    31.751687 
136360000    276.30917    278.84558    215.88368   -2725.7328     2715.855    62.961891    32.115067 
136364000    282.57978    314.01105     283.7363   -2752.3989    2722.1579    30.274749    32.528933 
136368000    292.72858     152.8775    367.55685    -2795.572    2786.0837   -214.67935    31.900934 
136372000    284.57319    292.28156    294.71021   -2838.1495    2803.6383   -2.4286594    32.191212 
136376000    284.26782    495.21054    269.36758   -2895.9643    2872.3254    225.84296    32.832796 
136380000    261.91568    297.22182    291.27013   -2889.0493    2889.5667    5.9516855    32.904073 
136384000    294.18614    280.55106    263.33192   -2919.8547    2893.8118    17.219135    32.567251 
136388000    291.95196    323.08322    221.93422   -2961.7633    2936.3473      101.149    32.954194 
136392000    277.28246     363.4436    366.30722    -3032.443    3000.6492    -2.863626    32.679652 
136396000    296.99751    204.87172    525.05527   -3043.7683    3013.1858   -320.18355     32.12617 
136400000    259.78825    347.72043    332.49105   -3072.4042    3057.9153     15.22938    32.332046 
136404000    255.83612    380.15264    549.64126   -3124.4132    3112.1911   -169.48862    32.166127 
136408000    272.72139    378.87848    190.89696   -3138.7321    3125.4731    187.98152    32.425229 
136412000    285.81685    616.98537    330.34285   -3159.1842    3141.2641    286.64251    32.700795 
136416000    282.52688    331.95169    298.51977   -3192.6746    3187.7075     33.43192    32.747706 
136420000    279.11153    305.87729    277.35611   -3250.4762    3240.8883     28.52118    32.820049 
136424000    268.40386    289.32991     211.1402   -3245.4215    3235.8475    78.189704    32.803446 
136428000    285.56235    278.20772     358.7489   -3270.0148    3254.3152   -80.541183    32.981911 
136432000    283.26557    490.53909    327.61943    -3322.821    3281.7965    162.91966    33.367328 
136436000    266.94187    310.48787    392.43692   -3366.7774    3368.3959   -81.949049    33.257895 
136440000    291.09343    323.50615    331.39857   -3399.3284    3386.6284   -7.8924205    33.422153 
136444000     267.6182    286.15076    225.55247   -3417.9023    3401.1276    60.598286    33.241442 
136448000    300.20099     440.3359    384.92033   -3449.0333    3439.5372    55.415578    33.369296 
136452000    282.25514    335.51418    341.29686   -3468.8141    3446.0034   -5.7826811    32.999736 
136456000    283.27301    483.97573    230.86284   -3510.8507    3517.6706    253.11289    32.830555 
136460000    290.36414    391.83944    306.30261   -3573.5119    3551.9014    85.536828    32.779757 
136464000     275.5562    302.05246    243.81078   -3605.3948    3602.0171     58.24168    32.970142 
136468000    278.98824    221.39544    360.97831     -3691.31    3673.6907   -139.58288    32.730371 
136472000    281.99714    484.11616    365.03112   -3744.6524    3734.5331    119.08505    32.797485 
136476000    263.12609    188.68479     285.6595   -3777.6996    3788.5057   -96.974709    32.392691 
136480000    284.48432    261.33397    403.78333   -3806.4703    3793.8907   -142.44937    32.459403 
136484000    283.78171    385.86536    305.21649   -3851.8318     3854.618    80.648869    32.454716 
136488000    291.74476     307.5351    430.24234    -3913.935    3877.7409   -122.70724    32.360501 
136492000    266.80815    353.40826    318.46296   -3944.0978    3931.1989    34.945307    32.476438 
136496000    279.67658    339.29333    617.78893    -4003.912    3987.8119   -278.49559    32.053835 
136500000    285.92683    428.41175    211.73823    -4036.349     4019.499    216.67352    31.730229 
136504000    287.02158    710.35538    346.90629    -4056.365    4042.1755     363.4491    31.992184 
136508000    272.55868    534.38386    389.05026   -4070.9235    4056.2874     145.3336      31.8277 
136512000      265.051    315.05065    296.99604   -4113.4472    4096.7489    18.054601    31.925372 
136516000    289.29784    244.13026    450.57615    -4153.919    4130.7732   -206.44589    32.029323 
136520000    307.96652    713.74502    437.94127   -4210.6878    4180.5936    275.80376    31.912545 
136524000    308.11437    461.95358    200.72928   -4245.2481    4210.0277     261.2243    31.848841 
136528000    282.29433     256.4258    423.48457   -4271.8174    4244.1471   -167.05878    31.977685 
136532000    294.09248    434.87357     306.2798   -4305.0903    4284.2178    128.59376    31.830594 
136536000    292.00944    429.63745    289.78837   -4346.0795    4310.4728    139.84908    31.746393 
136540000    280.26157     466.7489    518.03798   -4363.6827    4362.7218    -51.28908    31.802002 
136544000    300.80228     592.2415    470.10602   -4390.7465    4362.4831    122.13548    31.772824 
136548000    285.28714    372.87215    331.84534   -4409.1185    4403.7404    41.026808    31.639401 
136552000    265.79838     429.3826    135.69983   -4443.7133    4413.2087    293.68277    31.898329 
136556000    279.62762    189.08243    308.17592   -4442.3341    4421.2513   -119.09349    32.012743 
136560000    289.65485    344.43964    294.60568   -4479.1868    4450.8477     49.83396     31.93037 
136564000    307.65858    462.86548    295.30421   -4526.0244    4494.6471    167.56127    31.843128 
136568000    293.26779    565.40844    264.30655   -4546.0428    4524.5687    301.10189    31.769992 
136572000    270.76383     287.3439    250.19717   -4590.1397    4579.8419     37.14673    31.913113 
136576000    281.68303     402.6443    285.38414   -4639.3669    4618.2031    117.26016      32.0936 
136580000    288.39996    357.40921    427.13797   -4683.2924    4658.8916   -69.728762     32.12679 
136584000    252.87519    358.70391    298.75889   -4711.7002    4730.9835    59.945018    32.372436 
136588000    277.48695    512.04668     204.4619   -4753.0807     4754.551    307.58477    32.280372 
136592000    278.29505    446.98833    269.74844   -4800.4027    4788.3588    177.23989    32.232324 
136596000     312.2072    615.77052    199.94992   -4853.5499    4816.6131    415.82061    32.436917 
136600000    278.12469    351.75649    440.61985   -4891.0533    4873.5403   -88.863361    32.636361 
136604000    300.60661    286.38765    309.50225   -4928.5251    4907.7925   -23.114602    32.538604 
136608000    315.13324    248.75183     280.9885   -4980.3063    4943.0282   -32.236664    32.259829 
136612000    279.89382    455.50217    392.86254   -5002.9013    4992.6897    62.639631    32.148742 
136616000    260.67129    306.69348    398.32431   -5044.6431    5055.8185   -91.630831    31.959207 
136620000     259.1684    490.43863    334.79504   -5102.2794    5098.3065    155.64359     31.65669 
136624000    296.56976    308.59762    428.72042   -5173.4046    5150.6198    -120.1228    31.644748 
136628000    282.16868    329.40052    345.76472   -5216.7326    5199.9674   -16.364192    31.808352 
136632000    288.61671    384.26059    363.48287   -5270.8851     5261.319    20.777725    31.838615 
136636000    281.86037    246.18949    411.86101   -5326.1672    5320.8387   -165.67152    31.727614 
136640000    318.01782    474.09902    343.94917   -5358.8903    5334.1517    130.14986    31.608939 
136644000    312.78081    341.44236    284.53583   -5399.9929    5372.6976    56.906537    31.704747 
136648000    266.08074    356.49847    321.78642   -5456.3796    5470.0564    34.712047    31.633187 
136652000     272.3309    286.49845    390.16609   -5530.9768    5526.4193   -103.66764    31.612792 
136656000    282.01005    558.15045     475.1456   -5568.3444    5538.7743    83.004851    31.773821 
136660000    288.76224     291.6945    341.78812   -5602.7887    5576.6243   -50.093617    31.854635 
136664000    273.86667     196.5278    495.59344   -5628.5725    5615.8301   -299.06564    31.747962 
136668000    283.46516    455.80935     414.1689   -5679.5617    5655.8419    41.640451    31.596481 
136672000    296.06833    372.56374    192.72257     -5729.39    5702.5693    179.84118     31.58021 
136676000     276.1793    553.98602     293.3979   -5739.8716    5746.4641    260.58812    31.654271 
136680000    309.29301    382.02325    345.23651   -5784.6975    5759.2519    36.786744    31.474126 
136684000     268.5169    420.43807    150.26963   -5800.3076    5781.0988    270.16844    31.493995 
136688000    272.69541    282.04584    628.56957   -5818.3879    5805.5304   -346.52373    31.186131 
136692000    274.66064    366.78829    457.81669   -5844.5596    5839.1034   -91.028399    31.221861 
136696000    287.40783    294.53913    340.22973    -5885.286    5870.1458   -45.690605    31.282166 
136700000    285.06651       175.85    273.65455   -5950.6658    5941.4333   -97.804549    30.759693 
136704000    270.56506    352.59178    335.58872   -5971.0138    5965.0323    17.003062    30.787025 
136708000    276.25178    315.12906    311.83299   -5971.4705     5966.201    3.2960676    30.830528 
136712000    246.57962    420.95231     264.3235   -6026.9595    6034.4654    156.62882     30.88888 
136716000    258.74233    188.49406    264.14685   -6068.3384    6065.2215   -75.652785    30.923058 
136720000     268.1286    330.83601    294.53524   -6117.4504    6112.7528    36.300775    30.822741 
136724000    310.31159    317.84085    301.33265   -6176.0467    6156.7395    16.508198    30.845221 
136728000     283.0181    285.56735    545.25468   -6196.2679    6186.1374   -259.68733    31.040781 
136732000    287.34282    291.83211     536.9104   -6251.0739    6235.1543   -245.07829    30.962848 
136736000    303.46898    242.66628    596.38796   -6297.6431    6258.8657   -353.72168    31.025659 
136740000     289.3765    418.41324     380.2876   -6337.2937    6307.2413     38.12564     31.10824 
136744000    273.85504    335.99756    341.85986   -6356.2153    6351.4684   -5.8622994    31.079631 
136748000    279.47288    256.60705    195.08847   -6395.8047    6400.0002    61.518583    31.198607 
136752000     261.4152    537.96684    479.93608   -6432.5251    6434.5786    58.030764     31.04824 
136756000    272.30483    471.26568     228.7409   -6494.7681    6493.1682    242.52479    31.228778 
136760000    299.04246    351.08231    404.71966   -6520.0383    6527.8769   -53.637346    31.213401 
136764000    293.75062    444.26856     240.2673   -6575.9697    6544.6844    204.00127    31.299266 
136768000    277.11991    351.21521    279.01817   -6595.9798    6592.7569    72.197037    31.302276 
136772000    264.73157    241.66766    354.37917   -6676.7363    6666.9684    -112.7115    31.274749 
136776000    268.40027    333.77151    309.36869   -6708.8146    6708.8503    24.402818    31.270094 
136780000    317.68465    513.64043     444.0951   -6762.9133    6732.5025    69.545335    31.113778 
136784000    269.93302    323.67951    266.15965   -6793.6783    6778.1022    57.519859    31.297797 
136788000    302.21985    188.99821    400.07078   -6842.4221    6819.5594   -211.07257    31.301454 
136792000    311.32248    215.63673    388.06195   -6864.6856    6846.3573   -172.42523     31.20747 
136796000    273.15471    415.16822    286.52042   -6913.1071     6905.744     128.6478    31.091216 
136800000    330.15054    521.54313    298.57289   -6977.8769    6916.1222    222.97024    31.365096 
136804000     267.9897    453.97219    244.74628   -6980.8215    6982.7901    209.22591    31.426632 
136808000    299.79212     389.9867    304.91994   -7058.0656    7049.0091    85.066758    31.386117 
136812000    320.52685    592.70694    414.25732   -7091.2785    7062.2199    178.44962    31.604325 
136816000    295.74786    323.27587    175.27021   -7141.4551    7119.3294    148.00565    31.702356 
136820000    273.92552    719.54062    294.41444   -7189.1955    7172.5363    425.12618    31.719662 
136824000    249.29129    398.67095    252.51172   -7211.0439    7234.0956    146.15923    31.662908 
136828000    325.46043    296.49509    422.55651   -7269.4441    7214.0897   -126.06142     31.61001 
136832000    313.22566    270.01051    553.84873   -7292.7007    7266.0019   -283.83822    31.503177 
136836000     307.0589    317.61982    272.66888     -7314.52    7284.7878    44.950938    31.373221 
136840000    297.30256    287.16229    369.43079   -7330.0387    7324.8227   -82.268493    31.366106 
136844000    260.54889    199.64989    266.55784   -7368.3113    7368.2711   -66.907951    31.126882 
136848000    273.34613    279.96588    384.48399   -7410.9293    7401.7757   -104.51811    30.966461 
136852000     292.5209     379.5418    363.26425   -7466.8218    7451.7443    16.277547    31.243503 
136856000    266.09271     263.8927    464.27346   -7495.4065    7495.8349   -200.38076    31.215158 
136860000    277.86602    294.84125    307.06495    -7517.009    7520.7318   -12.223697     31.15852 
136864000    270.15269    425.56265    362.12362   -7552.4852    7551.3894    63.439033    31.204352 
136868000    274.74954    471.19318    171.43975   -7571.0733    7557.2885    299.75343    31.107216 
136872000    263.98911     207.8126    296.55236    -7589.933    7578.6293   -88.739755    31.129052 
136876000    275.63609    415.54932    249.10069   -7642.1153    7627.6438    166.44863    31.299931 
136880000    281.31865    306.79784    211.95342   -7690.0341    7671.1014    94.844426    31.294853 
136884000    271.24715    247.11556    132.77574   -7725.9457    7718.4579    114.33982    31.253803 
136888000     284.0805    283.38322    208.83876   -7765.9761     7736.267    74.544461    31.278238 
136892000    261.70486    406.52355    454.43959   -7792.8347    7791.5492   -47.916043    31.197692 
136896000    247.29061    252.26639    201.72699   -7818.9127    7815.5007    50.539399    31.286573 
136900000    259.57942    262.94225    302.91738   -7818.2994    7818.6875   -39.975131    31.306343 
136904000    276.10229    381.54318    273.59302   -7883.8638     7868.042    107.95016    31.310777 
136908000    275.73461    370.82027    358.52723   -7894.5459    7894.0879     12.29304    31.463193 
136912000    293.82951    279.40618    187.92692   -7929.6025    7894.4972    91.479256    31.603897 
136916000    278.77804    507.77809    234.20139   -7940.5921    7932.3725     273.5767    31.476947 
136920000    327.12837    515.34011    377.46169   -8012.9103    7965.9981    137.87842    31.595461 
136924000      282.849     293.3179    382.28709   -8035.7699    8026.6599   -88.969199    31.646412 
136928000    306.60256    437.75799    244.46956   -8095.1801    8076.3347    193.28843    31.824222 
136932000    254.90304    425.80616     323.7453    -8135.717    8142.9259    102.06086    31.754969 
136936000    242.76887     402.7233    303.28652    -8203.945    8218.2962    99.436774    31.791309 
136940000     284.1244    320.29625    169.41249   -8249.1945    8236.5375    150.88376    31.900119 
136944000    303.36743    436.20811    306.59088   -8293.0279    8286.7222    129.61723    31.842749 
136948000    271.16684    372.49654    188.24299   -8307.1629    8301.6194    184.25355    31.739784 
136952000    272.12683    406.69757    323.67812   -8348.4438    8335.8234    83.019445    31.791318 
136956000    294.10439    413.01731    190.77605   -8375.8071    8364.0322    222.24125    31.800919 
136960000    296.76483    360.14286    403.98315   -8402.5247    8368.0148    -43.84029    31.858118 
136964000    324.24221    347.56665    555.52557   -8416.4121    8379.3553   -207.95892    31.840798 
136968000    295.17788     172.9824    301.01819    -8418.989    8404.6086    -128.0358    31.842759 
136972000    248.33638    355.13845    194.38022    -8418.045    8442.6512    160.75823    31.901632 
136976000    303.90373    267.90271    363.32238   -8463.0269    8452.5154   -95.419671    31.852895 
136980000    279.85573    241.56593    199.88628   -8497.1143    8489.8386     41.67965    31.775213 
136984000    296.13739    265.29181    359.67607   -8573.5231    8537.1388   -94.384258    31.655968 
136988000    284.97566    479.25746    433.06794   -8605.6128    8602.0743    46.189518    31.697757 
136992000    284.47335    323.58701     276.9184    -8643.611    8637.9318    46.668616    31.839426 
136996000    287.11346    322.33534    254.02325   -8672.6588     8652.808    68.312094    31.687648 
137000000     274.9493    443.95227    423.01088   -8694.3579    8685.0553    20.941387    31.718252 
137004000    273.37214    277.53587    425.67975   -8725.9253    8726.1399   -148.14389      31.6824 
137008000    313.65816    158.71303    294.21025   -8809.7819    8786.0011   -135.49722    31.841681 
137012000     261.2629    245.20211    434.77228   -8833.4979    8823.5482   -189.57017    31.791698 
137016000    305.64243    377.75336    212.99672   -8877.9844    8859.6282    164.75664     31.72262 
137020000    298.81081    522.07031    254.94961    -8908.066    8902.4374     267.1207    31.740286 
137024000    277.07573    329.70455    564.19868   -8941.1358    8947.3049   -234.49414    31.787764 
137028000    272.97438    457.18734    302.56867    -8986.994    8995.4929    154.61867    31.761409 
137032000    272.62483    380.41733    392.39034   -9039.0284    9021.5087   -11.973015    31.809693 
137036000    281.37111    290.57111     333.9192   -9080.4446    9059.2773   -43.348087    31.752375 
137040000    250.98969    407.73078    305.99799   -9111.0399    9135.8523    101.73278    31.705966 
137044000    265.28567    278.32996    325.71183   -9160.4194    9164.2331   -47.381864    31.663134 
137048000    278.47468     477.6182    245.25798   -9232.2885    9218.0662    232.36022    31.682354 
137052000    295.99913    247.07279    321.56413   -9247.4308    9242.5174   -74.491345    31.678561 
137056000      297.627    239.33061    352.87726    -9285.102    9260.4409   -113.54665    31.688741 
137060000    257.02403    222.04909     160.9159   -9319.3014     9326.827    61.133194    31.724641 
137064000    296.03863    526.60356    373.40117   -9364.6522    9336.3065    153.20239    31.693537 
137068000    270.87817    147.52454    404.23122   -9388.9679     9377.681   -256.70668    31.545435 
137072000    311.02716    312.01179     387.3547    -9451.429    9412.3918   -75.342902    31.529899 
137076000    291.04685    428.86751    496.09501    -9453.127    9436.9946   -67.227495    31.705812 
137080000    293.10249    326.02763    437.01442    -9478.489    9471.8137   -110.98679    31.896097 
137084000    279.84123    297.17774    394.58701   -9522.6673    9516.8312   -97.409277      31.8414 
137088000    285.14961    189.28896    187.64993   -9566.7453    9558.5377    1.6390292    31.777597 
137092000    270.47389    221.94535    310.87647    -9614.925    9599.9123   -88.931122    31.735419 
137096000    254.47039    430.22116    236.68278   -9630.1708    9642.1318    193.53838     31.84275 
137100000     299.1582    433.86853    280.17603   -9684.1244    9666.9845     153.6925    31.897322 
137104000    268.51354    229.24448    166.29069   -9717.1932    9708.3266    62.953787    31.813723 
137108000    264.18861    255.93475    215.83569   -9729.1667    9726.1754    40.099059    31.772935 
137112000    265.51631    392.36814    283.50413   -9763.3693    9763.7433    108.86401    31.734489 
137116000    281.13384    337.39053    192.13513   -9789.2876    9776.4206     145.2554    31.810354 
137120000    275.56551    243.17263    341.67354    -9808.307    9815.0827   -98.500909    31.718091 
137124000    254.50315    457.12161    307.02885   -9832.9766    9849.7433    150.09276    31.809402 
137128000    246.06872    262.07572    230.64432   -9869.8004    9873.2628    31.431394    31.735116 
137132000    269.51021    255.23384    413.38245   -9897.0097     9894.963   -158.14861    31.816712 
137136000    269.33237    471.72348    486.16771   -9938.9651    9944.8846   -14.444228    31.774105 
137140000    299.78312     454.4495    332.47914   -9970.2499    9936.2487    121.97036    31.725504 
137144000    258.87379    157.85595    255.01873   -9996.8589    9988.5893   -97.162786    31.707649 
137148000    276.93886    165.08382    323.41825   -10055.319    10048.482   -158.33442    31.685119 
137152000    277.40531    153.55535     312.6958   -10086.292    10066.917   -159.14046    31.553268 
137156000    262.58756    243.95125    301.08871   -10113.491    10118.903   -57.137465    31.612112 
137160000    301.00722    221.17903    293.56018   -10148.484    10125.911    -72.38115    31.616057 
137164000    274.45757    153.53437    258.58722   -10155.659    10140.646   -105.05285    31.526497 
137168000    280.23246    340.10896    293.26279   -10194.771    10205.625    46.846172     31.53651 
137172000    260.02715    222.70441    242.42186   -10215.188    10222.872   -19.717458    31.516038 
137176000      287.195    250.61071    370.28374   -10212.259    10200.729   -119.67303    31.599618 
137180000    262.26227    310.78249    565.74794   -10235.894    10240.233   -254.96545    31.622495 
137184000    296.38167    265.78568    384.90239       -10257    10243.179   -119.11671    31.612952 
137188000    318.39793    205.18226    447.13064   -10307.356    10276.431   -241.94838    31.833595 
137192000    263.50025    267.89542    354.26554   -10307.785     10320.85   -86.370118    31.785627 
137196000    258.01032    388.20384    144.41639   -10334.503    10338.131    243.78745    31.912451 
137200000     287.1823    295.69568    293.97199   -10353.061    10344.379    1.7236833     31.85759 
137204000    294.70769    391.17124    479.63184   -10389.232    10372.325   -88.460601    31.692082 
137208000      253.932    207.85647    152.12726   -10418.642     10417.61     55.72921    31.630875 
137212000    267.16837    174.52036    350.09155   -10438.826    10443.199   -175.57119      31.6819 
137216000    325.07575     369.7366    393.54393   -10499.233    10470.575   -23.807331    31.666126 
137220000    287.63409    280.68614     454.4757   -10512.735    10517.509   -173.78955    31.701405 
137224000    269.84119    420.01099    170.27046   -10574.681    10544.615    249.74054    31.737319 
137228000    285.61885    377.67379    270.06158   -10616.651    10592.699     107.6122    31.699301 
137232000    275.86697    308.82562    333.93508   -10607.693    10607.817   -25.109464    31.771092 
137236000    272.92822    392.53578    189.81608   -10682.281    10672.298    202.71971    31.744605 
137240000    266.14291    345.44736    218.72847   -10690.796    10694.495    126.71889    31.813581 
137244000    253.49667    430.16293    178.67669   -10704.146    10711.787    251.48624    31.859416 
137248000    304.51506    407.93961    361.17411   -10720.499    10714.099    46.765499    31.928134 
137252000    280.35211    268.42189    358.92599    -10732.96     10727.11   -90.504102    32.013856 
137256000    277.29415    450.53307    259.48207   -10751.532    10746.654      191.051    32.086321 
137260000     311.9386    726.14017    423.39482   -10798.427    10775.931    302.74536    32.091355 
137264000    257.81606    242.63355    302.12295   -10833.962    10852.318   -59.489405    32.090763 
137268000    277.17271     423.7707    277.27877   -10887.249    10877.989    146.49193    32.087644 
137272000    289.68259    322.76741     271.0282   -10936.623    10918.418    51.739214    32.101419 
137276000     256.3221    460.41939     448.5557   -10991.639    10981.906    11.863697    32.037862 
137280000    265.60492      383.521    482.97448   -11010.995    11004.934   -99.453481    32.053557 
137284000    312.00241    418.38442    390.18282   -11054.227    11028.861    28.201601     31.98311 
137288000    296.70532    223.59302    410.13791   -11073.266    11060.352   -186.54489    31.975678 
137292000    278.04591    225.90912    195.40212   -11115.732     11104.56    30.507002    31.983285 
137296000     292.2975     337.3424    204.38009   -11146.114    11144.291     132.9623    31.986759 
137300000    271.94712    374.24008    196.08438     -11174.1    11182.301     178.1557    31.998545 
137304000    283.27127    328.11661     324.9614   -11243.226    11216.586     3.155215    31.992454 
137308000    289.66118    461.58103    462.00991   -11285.631    11291.354  -0.42887454    31.878334 
137312000    301.36775    460.31636    353.58412   -11325.459    11298.228    106.73224    31.926111 
137316000    294.96449     633.0984    227.70416   -11365.782    11343.718    405.39425     32.02622 
137320000    262.02654    297.19074    226.85806   -11379.384    11372.925    70.332681    31.940285 
137324000    296.77211    520.03142    414.65582   -11419.412    11379.083     105.3756    32.058755 
137328000    305.79374    324.96983    438.25257   -11446.857    11414.061   -113.28274    32.021807 
137332000    272.49716    449.52186    426.21069   -11492.169    11475.249    23.311175     31.98901 
137336000     267.1848    189.58852    213.08471   -11505.794    11507.485   -23.496192    32.032139 
137340000    273.86359    339.60695    629.69351   -11544.488    11547.878   -290.08656    32.117614 
137344000    286.42939    304.26027    144.72211   -11620.273    11588.947    159.53816    32.046351 
137348000    291.19335    226.55265    290.57375   -11643.475    11617.844   -64.021098    32.078647 
137352000    271.02364    355.37963    388.17832   -11677.658    11667.687   -32.798697    32.103289 
137356000    282.23582    500.75512    427.75214   -11734.445    11717.084    73.002981    32.069125 
137360000     325.4515    379.89676    283.94531   -11771.077    11739.327    95.951445    32.076737 
137364000     296.9578     452.9836    358.74724   -11809.027    11804.133    94.236365    32.108443 
137368000    302.58766    333.95694     475.1618   -11877.344     11842.24   -141.20486    32.053917 
137372000    247.54783    319.68798    230.73072    -11886.97    11902.741    88.957252    31.914707 
137376000    274.62247    259.67832    341.97492   -11893.016    11901.639   -82.296597     31.88932 
137380000    283.35481    280.66635     528.8393   -11924.603     11923.91   -248.17295    31.844645 
[...]
167328000    282.76448    348.86667    267.33936   -270106.93    270218.57    81.527305    29.715154 
167332000    272.08974    448.91884    270.41612   -270113.12    270241.79    178.50272      29.7198 
167336000    262.93085    403.37162    338.37835   -270157.61    270287.41    64.993271    29.718388 
167340000     256.0094    411.75063    193.43495   -270162.81    270294.41    218.31568     29.71816 
167344000    311.80529    286.94794    469.63031   -270215.19    270323.22   -182.68237    29.719407 
167348000    311.51753    460.17011    523.51126   -270260.18    270362.85   -63.341148    29.718679 
167352000    279.28002    257.00783    298.19821   -270325.41    270452.33    -41.19038    29.716697 
167356000    280.65301    264.72968    267.85432   -270372.58    270512.63    -3.124641    29.718487 
167360000    282.17153    553.64832    340.70615   -270422.45    270543.47    212.94217    29.722635 
167364000    291.94341    344.37932    310.40973   -270455.38    270561.06    33.969584    29.724579 
167368000    290.09197    397.58635    269.80059   -270468.21    270580.02    127.78576    29.726654 
167372000    281.74102    615.47655    329.80059   -270532.76    270639.44    285.67596     29.72789 
167376000    267.70495    306.92708    299.77033    -270547.5    270676.36    7.1567478    29.728491 
167380000     276.4721    290.61756    252.25439   -270558.18    270690.83    38.363174    29.733582 
167384000    268.92902    617.04405    228.82288   -270599.78    270721.64    388.22117    29.736354 
167388000    280.83004    230.83744    292.23027   -270604.69    270738.44   -61.392822    29.738318 
167392000    280.63333    281.71172    336.45616      -270638    270758.93   -54.744438     29.74003 
167396000    304.02717     410.5195    437.79958   -270674.23    270790.48   -27.280083    29.740872 
167400000    260.93882    246.10905    432.78326   -270688.06    270822.27   -186.67421    29.737486 
167404000    277.89443    273.08994    416.51125   -270714.33    270853.11   -143.42131    29.740364 
167408000    258.33862    432.02208     395.0525   -270747.13    270877.02    36.969577    29.737626 
167412000    275.81889    263.33838    342.05518   -270767.82    270888.04   -78.716805     29.73818 
167416000    266.01379    323.54729    253.76896   -270795.75    270925.73    69.778327    29.740109 
167420000    296.25534     372.1312    388.83179   -270835.69    270948.43   -16.700588    29.735536 
167424000    265.24519    355.37175    366.15605   -270842.92    270968.74   -10.784298    29.737177 
167428000    300.94968    347.15928    373.38745   -270867.94    270976.83   -26.228173    29.736923 
167432000    276.62248    265.44951      303.308   -270906.03    271030.03   -37.858485    29.734591 
167436000    275.00306    462.81577    267.20606    -270893.9    271044.37     195.6097    29.731633 
167440000     262.0126     422.3498    310.95569   -270937.08    271070.43    111.39411    29.732533 
167444000    280.76993    250.54069    326.59999   -270956.21    271095.29   -76.059302    29.733937 
167448000    276.89474    306.24842    306.82376   -270995.67    271134.48  -0.57533885    29.732881 
167452000    288.05163    316.26396    512.83445   -271043.44    271154.66   -196.57049    29.729913 
167456000    288.01065    289.47461    354.58299   -271116.94    271224.08   -65.108382    29.734653 
167460000    307.83912    302.15164    555.20486   -271124.86    271232.76   -253.05321    29.734907 
167464000    289.52475    334.16905    167.78206   -271147.03     271265.2    166.38699    29.732831 
167468000    264.98552    231.65009    224.57933   -271149.96    271267.63    7.0707578    29.731903 
167472000    277.81935    302.55443    443.97434   -271163.69     271274.1   -141.41991    29.731414 
167476000    306.95388    322.62159    263.37566   -271168.81    271284.94    59.245927    29.730966 
167480000    287.78617    393.61604    338.27678    -271225.4    271346.45     55.33926     29.72945 
167484000    303.70908    217.39693    506.19575    -271251.5    271368.14   -288.79882    29.731679 
167488000    283.43306    379.33669    340.17232   -271262.87    271402.24    39.164366    29.731652 
167492000    268.21344     177.4257    314.88928   -271315.91    271444.86   -137.46357    29.726073 
167496000    245.76679     371.7736    284.06603    -271386.3    271537.53    87.707568    29.726948 
167500000    241.52031    394.73384    228.05705   -271416.76    271551.75    166.67679    29.725965 
167504000    281.38542    324.97176    298.25086   -271454.81    271561.24    26.720896    29.724362 
167508000    291.36589    273.12873    297.67081   -271500.56    271612.95   -24.542083    29.722761 
167512000    266.17635    506.50373    341.55603   -271518.61    271667.28     164.9477    29.723662 
167516000    245.84356    363.21275    369.73759   -271576.28    271723.97   -6.5248322    29.727908 
167520000    288.38319    343.05626    365.02712   -271607.45    271735.91    -21.97086    29.735105 
167524000    271.68338    167.76932     180.2884   -271625.14    271762.32   -12.519079    29.736352 
167528000     308.6086    326.73551    246.50393   -271688.41    271790.63     80.23158    29.735265 
167532000    278.56335     251.0987    253.50931   -271713.05    271823.77   -2.4106108     29.73345 
167536000    289.53835    434.56901    408.92819   -271730.37    271861.99    25.640814    29.737944 
167540000    301.18867    209.46489    318.55907   -271786.57    271900.55   -109.09418    29.738331 
167544000     269.3472     274.2721      221.564    -271801.6    271930.53    52.708101    29.733165 
167548000     307.8387    359.29362    474.15891   -271867.35    271953.76   -114.86529    29.737083 
167552000    275.24166    262.70007    255.11634   -271874.36    272003.69    7.5837333     29.73758 
167556000    299.93849    333.53028     345.4686   -271917.79    272038.56   -11.938318    29.736815 
167560000    302.69139    302.42994     454.1034   -271924.13    272043.51   -151.67346    29.735493 
167564000    294.88451    516.94215    461.68576   -271990.38    272097.87    55.256394    29.734961 
167568000    287.58083    329.43902    262.19069   -272024.45     272148.1     67.24833     29.73394 
167572000    267.66562    364.98082     429.0646   -272074.29    272189.56   -64.083778    29.731607 
167576000    293.39742    416.52625    376.58036   -272100.33    272215.73    39.945897    29.727507 
167580000    269.50781    149.62703    286.25946   -272111.93    272244.77   -136.63242    29.731405 
167584000    294.42808      323.565    325.13272    -272144.7    272245.47    -1.567718    29.733895 
167588000    267.58553    293.38324     244.9047   -272143.47    272280.61    48.478533    29.735954 
167592000    261.48771    479.01267    185.89667   -272161.26    272306.45    293.11601    29.734868 
167596000    265.39071    353.64126    351.34395   -272182.36    272327.38    2.2973114    29.733033 
167600000     280.3856    323.69307    266.90165    -272245.4     272361.9    56.791419    29.732914 
167604000    273.66089    376.86632    232.80204   -272283.49    272396.35    144.06428    29.736398 
167608000    250.65928    193.71712    205.97454      -272305    272432.83    -12.25742    29.737094 
167612000    305.21997    231.21838    224.84364   -272351.05    272467.31    6.3747392    29.740034 
167616000     289.8136    528.53198    290.46629   -272406.96    272522.29    238.06569    29.742662 
167620000    286.17968     394.7787    318.19493   -272424.82    272542.22    76.583775    29.743791 
167624000    285.29965    261.37767    298.76263   -272455.67    272576.89    -37.38496    29.743531 
167628000    315.21976    210.24418    508.61676    -272468.6    272595.14   -298.37257    29.738963 
167632000    277.11552    388.27866    329.16955   -272522.68     272640.4    59.109112    29.738585 
167636000    258.39302    316.19722    378.29553   -272569.77    272700.14   -62.098314    29.735347 
167640000    273.12996    217.55609    345.44715   -272627.26    272765.18   -127.89107    29.729838 
167644000    292.15006    442.61151    292.24122   -272681.31    272784.22    150.37029     29.73022 
167648000    303.87558    371.51302    313.56743   -272734.67    272843.39    57.945597    29.728946 
167652000    302.32193    358.46634     302.0495   -272754.81    272879.55    56.416837    29.729859 
167656000    295.91854     475.0532    483.28723   -272750.09    272868.07   -8.2340237    29.730026 
167660000    272.34832     404.2961    224.75068   -272799.54    272923.01    179.54542    29.726793 
167664000    320.03765    371.08185    370.41461   -272874.87    272984.31   0.66724173    29.727227 
167668000     259.1042    175.20704    402.74867   -272863.92    272990.34   -227.54164    29.728591 
167672000    270.75425     399.2793    226.78525   -272870.14    273018.27    172.49405    29.729665 
167676000    282.58857    345.35922    251.30729   -272902.12     273039.8     94.05193     29.73241 
167680000    291.36409    592.15958     396.1729   -272927.03    273061.73    195.98667    29.741385 
167684000    291.39144     537.6206    351.49569   -272953.63    273049.06     186.1249    29.748475 
167688000    309.30175    343.19561    395.73188   -273002.62    273111.03   -52.536271    29.752857 
167692000    243.41125    291.39319    201.09883   -273002.22    273143.34    90.294363    29.750302 
167696000    257.16875    294.60825    373.45272   -273006.25    273150.91   -78.844473    29.754573 
167700000    256.31006    328.32009    161.89866      -273076    273223.56    166.42144    29.757834 
167704000     261.0239    244.42843    251.53254   -273112.87    273254.19    -7.104112    29.761575 
167708000    275.15947    495.87195    360.36202    -273150.1    273275.21    135.50994    29.760966 
167712000    288.87867    249.52844    311.23161   -273207.65    273314.98    -61.70317    29.762137 
167716000    290.13802    255.39655    433.99183   -273250.89    273362.66   -178.59528    29.759744 
167720000    299.97253    427.29549    385.60854   -273298.87    273416.23    41.686946    29.755629 
167724000    305.26234    313.14396    463.85084   -273333.09    273427.01   -150.70689     29.75602 
167728000    278.97573    350.18105    413.64138   -273346.87    273465.85   -63.460327    29.754869 
167732000    273.39769    320.87989    353.50016   -273355.15    273497.59   -32.620271    29.756718 
167736000    262.49468    306.59765    271.58699   -273374.28    273523.16    35.010654    29.756774 
167740000    272.54407    350.16586    306.25079   -273411.11    273533.55    43.915076    29.754876 
167744000    299.39424    274.96497    303.69325   -273461.22    273572.29   -28.728283    29.759221 
167748000    290.73845    383.74198    227.87366   -273473.15    273598.21    155.86832    29.759304 
167752000    290.29359    523.58667    291.00504   -273508.99    273624.16    232.58163    29.757814 
167756000    263.05162    243.18809    285.00257   -273521.99    273656.37   -41.814484    29.760075 
167760000    305.08655    325.58994    299.28366   -273581.63    273672.63    26.306279    29.761781 
167764000    289.42176    400.95217    232.65022   -273573.49    273705.06    168.30195    29.763246 
167768000    308.30725    303.70699     437.0092    -273610.4    273719.43   -133.30221    29.758202 
167772000    268.79635    253.70084    284.35274   -273677.98    273812.09   -30.651904    29.758917 
167776000    291.47394    387.20206    413.43124    -273750.5    273877.55   -26.229182    29.755493 
167780000    290.81914    354.05899    185.95302   -273820.57    273935.23    168.10597    29.757785 
167784000    277.82999    323.88017    377.85852   -273874.83    273992.35   -53.978353    29.759631 
167788000    303.69383    377.53465    218.79511   -273907.49    274019.83    158.73953    29.760436 
167792000    265.15018    287.57433     158.6085    -273918.9    274064.24    128.96583    29.760136 
167796000    299.80307    455.52836    667.05957   -273953.75    274062.55   -211.53121    29.756757 
167800000    277.24723    301.31197     332.7657   -273981.94    274107.83    -31.45373     29.75356 
167804000    250.79192    281.31706    241.32069   -274031.64    274169.85    39.996369    29.755035 
167808000    282.04997    462.37374    213.13408   -274076.68     274206.4    249.23966    29.755659 
167812000    284.53312    460.17999    227.15321   -274105.88    274226.12    233.02678    29.751164 
167816000    261.86576    195.74412     226.9821    -274146.1    274278.93    -31.23798    29.745567 
167820000    283.30171    429.40461    436.64299   -274160.85    274299.88   -7.2383792    29.742729 
167824000    283.83171    263.67861    424.77969   -274192.77     274312.5   -161.10108    29.742985 
167828000    276.48377    300.46159     140.3231   -274234.75    274343.85    160.13848    29.740483 
167832000    282.43078    365.80484    403.31524   -274262.17     274379.1   -37.510399    29.736844 
167836000    263.22713    501.01555    284.41756   -274307.59    274441.85    216.59798    29.736958 
167840000    284.72727    148.45224    265.57852   -274336.72    274480.23   -117.12629    29.735551 
167844000    284.46267    278.95289    283.45444   -274384.74    274513.29   -4.5015538    29.734839 
167848000    271.83783    305.61254    420.19041   -274411.09    274558.97   -114.57787    29.731361 
167852000    290.60696    500.59563    253.68432   -274437.11    274575.85    246.91131    29.728664 
167856000    280.23236     194.5692    247.77661   -274484.41    274613.85   -53.207414    29.728426 
167860000    270.70475    310.95378    458.93576   -274525.67    274659.86   -147.98198     29.72397 
167864000    289.42258    507.02287    220.70765    -274574.2    274710.78    286.31523    29.726645 
167868000    288.70205    269.76282    423.98501   -274636.13    274748.54    -154.2222    29.722851 
167872000    269.79538    421.35623    182.62263   -274667.09     274800.9     238.7336    29.727256 
167876000    295.99178     325.1985    371.48539   -274679.43    274797.07   -46.286886    29.728531 
167880000    277.99916    186.52825    120.53195   -274713.33    274844.31    65.996307    29.727086 
167884000    292.38153    308.41656    375.44511   -274751.96    274874.64   -67.028547    29.727918 
167888000     278.0195     260.2703    358.74282   -274804.35    274930.27   -98.472517    29.724941 
167892000    253.28863    441.49965    315.66826   -274835.42    274985.74    125.83139    29.725815 
167896000    268.26382    145.87803    334.21987   -274885.29    275025.38   -188.34185    29.729185 
167900000    269.04783    429.09709     221.0514   -274908.88    275025.52    208.04569    29.732876 
167904000    277.51329      371.201    244.63237   -274948.89    275056.94    126.56863     29.73393 
167908000     287.5287    293.05182    276.19804   -274966.77    275096.64    16.853784    29.733769 
167912000    299.49507    385.03408    334.24429   -275003.39    275112.52    50.789791    29.733398 
167916000    295.02727     266.7846    437.50476   -275045.52    275159.95   -170.72016    29.732312 
167920000    277.21959    314.48981    264.85511   -275070.53    275209.27    49.634692    29.737141 
167924000    276.94985    243.52024    314.58667   -275082.52    275204.93    -71.06642    29.730843 
167928000     293.2165    472.86617    376.28524    -275109.4    275234.22    96.580924    29.729598 
167932000    318.55309    327.60444    315.57662   -275180.77    275282.58    12.027818     29.72574 
167936000    312.29971    455.34305    497.11409   -275167.24    275260.25   -41.771039    29.727493 
167940000    259.22959    258.63115    255.67314   -275185.92    275324.07    2.9580072     29.72665 
167944000    292.48257    326.85418    312.88114   -275217.53    275336.27     13.97304    29.732311 
167948000    306.94625    474.13624    281.60508   -275283.41    275391.25    192.53116    29.728189 
167952000    282.34456    438.38391      408.956   -275289.79     275413.4    29.427918    29.725075 
167956000      293.069    474.76626    479.37947   -275339.36    275457.42    -4.613204    29.729156 
167960000    289.79784    508.22872    506.88758   -275390.45    275500.23    1.3411445    29.727904 
167964000    292.04373    292.70103    470.11534   -275386.92    275514.84   -177.41431    29.728941 
167968000    275.56981    244.34683    316.68335   -275398.04    275517.92   -72.336526     29.72184 
167972000    290.16913     636.7133    262.59028    -275426.8    275536.16    374.12303    29.724097 
167976000    286.51703    290.00515    251.18146   -275450.94    275547.95    38.823688     29.72354 
167980000    298.94988    340.22286    502.21157   -275465.12     275575.8   -161.98871    29.721987 
167984000    285.73929    354.63379    202.86418   -275515.58    275627.11    151.76961     29.72524 
167988000    280.66378    312.78852    342.04306   -275521.39    275644.18   -29.254543    29.724745 
167992000    312.04661    441.47552     506.8633   -275561.75    275655.04   -65.387777    29.725148 
167996000      259.498    483.19425    246.88274   -275592.06    275733.61    236.31151    29.723361 
168000000    266.62559    242.33311    303.54712   -275637.99    275762.07   -61.214012    29.726986 
168004000     256.3378    311.13356    294.54049   -275633.46    275779.77    16.593069    29.725862 
168008000     280.1238    195.76262    186.88719   -275690.33    275814.44    8.8754219    29.728376 
168012000    306.93507       229.89    274.15639   -275756.63    275862.66   -44.266394    29.726726 
168016000    256.72331    451.06874    256.58104   -275768.08    275905.94     194.4877     29.72614 
168020000    298.32551    375.34393    592.28355   -275808.09    275918.93   -216.93962    29.726551 
168024000    289.41662    501.19302    153.30584   -275840.08    275961.84    347.88718    29.727774 
168028000     247.5757    515.56468    188.94323   -275867.17    276016.58    326.62146    29.725017 
168032000    273.49014    275.24255    297.51218   -275920.92     276045.7   -22.269628     29.72395 
168036000    295.55668    356.55655    294.45557   -275926.92    276051.07    62.100986    29.726917 
168040000    274.55613     308.5561    216.13148   -275988.89    276121.22    92.424618    29.724999 
168044000     268.6509    401.42758    359.59595   -276032.38     276155.6    41.831627    29.727224 
168048000    327.42989    611.27079    444.75953   -276109.16    276190.35    166.51126    29.723107 
168052000    304.45823    322.25219    311.70024    -276096.1    276202.51     10.55195    29.726446 
168056000    285.56299    199.76492    335.50316   -276121.09    276242.51   -135.73825     29.72912 
168060000    288.12884    401.98212    454.20139   -276151.75    276264.06   -52.219268    29.725437 
Loop time of 5144.93 on 1 procs for 32000000 steps with 196 atoms

Performance: 671.729 ns/day, 0.036 hours/ns, 6219.716 timesteps/s
99.9% CPU use with 1 MPI tasks x no OpenMP threads

MPI task timing breakdown:
Section |  min time  |  avg time  |  max time  |%varavg| %total
---------------------------------------------------------------
Pair    | 1568.5     | 1568.5     | 1568.5     |   0.0 | 30.49
Bond    | 2527.9     | 2527.9     | 2527.9     |   0.0 | 49.13
Neigh   | 16.544     | 16.544     | 16.544     |   0.0 |  0.32
Comm    | 8.596      | 8.596      | 8.596      |   0.0 |  0.17
Output  | 4.1199     | 4.1199     | 4.1199     |   0.0 |  0.08
Modify  | 989.79     | 989.79     | 989.79     |   0.0 | 19.24
Other   |            | 29.51      |            |       |  0.57

Nlocal:    196 ave 196 max 196 min
Histogram: 1 0 0 0 0 0 0 0 0 0
Nghost:    0 ave 0 max 0 min
Histogram: 1 0 0 0 0 0 0 0 0 0
Neighs:    3913 ave 3913 max 3913 min
Histogram: 1 0 0 0 0 0 0 0 0 0

Total # of neighbors = 3913
Ave neighs/atom = 19.9643
Ave special neighs/atom = 5.87755
Neighbor list builds = 77666
Dangerous builds = 0

write_restart FINALCONFIG

Total wall time: 1:30:03
