LAMMPS UA chain data file
 
         196  atoms
         194  bonds
         192  angles
         190  dihedrals
           0  impropers
 
           3  atom types
           1  bond types
           1  angle types
           1  dihedral types
           0  improper types
 
    -400.000000     400.000000 xlo xhi
    -400.000000     400.000000 ylo yhi
    -0.050000      124.000000 zlo zhi
 
Masses
 
  1   14.00
  2   14.00
  3   14.00
 
Atoms

 1 1 3 -3.1066 -0.390728 -0.0123858 0 0 0
 2 1 3 -2.51727 0.140481 1.47177 0 0 0
 3 1 3 -1.46576 1.29121 2.16156 0 0 0
 4 1 1 -0.827595 1.6139 3.73209 0 0 0
 5 1 1 0.472356 1.24721 4.89468 0 0 0
 6 1 1 1.01659 0.0777865 6.08685 0 0 0
 7 1 1 0.751561 -0.68871 7.64276 0 0 0
 8 1 1 -0.327244 -1.40922 8.77834 0 0 0
 9 1 1 -1.62055 -1.05324 9.88054 0 0 0
 10 1 1 -1.97596 -0.339479 11.4713 0 0 0
 11 1 1 -1.69955 1.06895 12.4638 0 0 0
 12 1 1 -0.484414 1.63968 13.515 0 0 0
 13 1 1 0.258771 1.40119 15.0637 0 0 0
 14 1 1 0.981831 0.243668 16.2114 0 0 0
 15 1 1 0.485386 -0.980037 17.3664 0 0 0
 16 1 1 -0.32821 -1.36653 18.8458 0 0 0
 17 1 1 -1.47998 -0.840925 20.0512 0 0 0
 18 1 1 -1.81944 0.328212 21.3232 0 0 0
 19 1 1 -1.13152 1.33376 22.6406 0 0 0
 20 1 1 0.174636 1.48543 23.8216 0 0 0
 21 1 1 1.12357 0.806035 25.1441 0 0 0
 22 1 1 1.19383 -0.506502 26.2441 0 0 0
 23 1 1 0.657259 -1.15469 27.7417 0 0 0
 24 1 1 -0.638141 -1.32022 28.832 0 0 0
 25 1 1 -1.73677 -0.657844 29.9338 0 0 0
 26 1 1 -1.85838 0.101245 31.4792 0 0 0
 27 1 1 -1.18108 1.28766 32.6117 0 0 0
 28 1 1 0.147496 1.5545 33.6919 0 0 0
 29 1 1 0.868611 1.12746 35.2481 0 0 0
 30 1 1 1.20466 -0.0864603 36.4375 0 0 0
 31 1 1 0.436273 -1.16823 37.6019 0 0 0
 32 1 1 -0.455761 -1.27169 39.1824 0 0 0
 33 1 1 -1.46678 -0.647172 40.4553 0 0 0
 34 1 1 -1.56057 0.618827 41.5974 0 0 0
 35 1 1 -0.986404 1.27945 43.1479 0 0 0
 36 1 1 0.348429 1.51217 44.3029 0 0 0
 37 1 1 1.39231 0.638666 45.4167 0 0 0
 38 1 1 1.5518 -0.242129 46.9915 0 0 0
 39 1 1 0.750963 -1.31145 48.1422 0 0 0
 40 1 1 -0.547716 -1.38162 49.3521 0 0 0
 41 1 1 -1.20573 -0.719062 50.8628 0 0 0
 42 1 1 -1.2413 0.593524 52.0215 0 0 0
 43 1 1 -0.306834 1.48227 53.1504 0 0 0
 44 1 1 0.517169 1.51317 54.6749 0 0 0
 45 1 1 1.54549 0.639803 55.7269 0 0 0
 46 1 1 1.58738 -0.735072 56.7913 0 0 0
 47 1 1 1.14894 -1.42531 58.3214 0 0 0
 48 1 1 -0.140166 -1.61827 59.4616 0 0 0
 49 1 1 -1.17679 -0.82321 60.6816 0 0 0
 50 1 1 -1.36856 0.0229235 62.1943 0 0 0
 51 1 1 -0.65475 1.13766 63.3081 0 0 0
 52 1 1 0.641256 1.29704 64.523 0 0 0
 53 1 1 1.31375 0.809756 66.0468 0 0 0
 54 1 1 1.54541 -0.52928 67.174 0 0 0
 55 1 1 0.647069 -1.48299 68.3892 0 0 0
 56 1 1 -0.201659 -1.48887 69.9945 0 0 0
 57 1 1 -1.07704 -0.50384 71.1967 0 0 0
 58 1 1 -0.886432 0.77752 72.4554 0 0 0
 59 1 1 0.04042 1.52433 73.6995 0 0 0
 60 1 1 1.3609 1.28473 74.8317 0 0 0
 61 1 1 1.92743 0.270797 76.1716 0 0 0
 62 1 1 1.53679 -0.993104 77.3673 0 0 0
 63 1 1 0.467193 -1.48622 78.6887 0 0 0
 64 1 1 -0.691784 -1.06962 80.0099 0 0 0
 65 1 1 -1.08808 0.0875624 81.2681 0 0 0
 66 1 1 -0.442132 1.20115 82.507 0 0 0
 67 1 1 0.606901 1.45729 83.9297 0 0 0
 68 1 1 1.66806 0.706053 85.092 0 0 0
 69 1 1 1.89044 -0.494414 86.4059 0 0 0
 70 1 1 1.23409 -1.3658 87.7811 0 0 0
 71 1 1 -0.0258449 -1.44536 89.0306 0 0 0
 72 1 1 -0.914696 -0.575445 90.2651 0 0 0
 73 1 1 -0.819284 0.718863 91.4572 0 0 0
 74 1 1 0.106433 1.519 92.7058 0 0 0
 75 1 1 1.30255 1.38436 94.061 0 0 0
 76 1 1 1.97801 0.335691 95.2561 0 0 0
 77 1 1 1.67054 -0.832778 96.5432 0 0 0
 78 1 1 0.564267 -1.28017 97.8788 0 0 0
 79 1 1 -0.469764 -0.72482 99.258 0 0 0
 80 1 1 -0.73755 0.472023 100.552 0 0 0
 81 1 1 -0.0380717 1.50452 101.763 0 0 0
 82 1 1 1.0532 1.64081 103.093 0 0 0
 83 1 1 2.08616 0.816864 104.253 0 0 0
 84 1 1 2.18465 -0.46796 105.502 0 0 0
 85 1 1 1.57067 -1.11238 107.039 0 0 0
 86 1 1 0.285706 -1.09755 108.265 0 0 0
 87 1 1 -0.580318 -0.0953553 109.436 0 0 0
 88 1 1 -0.544382 0.848618 110.903 0 0 0
 89 1 1 0.419855 1.75409 112.128 0 0 0
 90 1 1 1.72578 1.52774 113.268 0 0 0
 91 1 1 2.14255 0.834556 114.817 0 0 0
 92 1 1 1.94966 -0.543044 115.922 0 0 0
 93 1 1 0.913917 -1.2182 117.148 0 0 0
 94 1 1 0.239361 -1.02034 118.74 0 0 0
 95 1 1 -0.948423 -0.133495 119.656 0 0 0
 96 1 2 -1.4379 0.4302 121.245 0 0 0
 97 1 2 -1.3844 -0.678 122.297 0 0 0
 98 1 2 -1.7147 -0.2091 123.87 0 0 0
 99 2 3 1.7852 -0.0914716 -0.0123858 0 0 0
 100 2 3 0.791012 -0.894703 1.13249 0 0 0
 101 2 3 0.37686 -1.09369 2.78403 0 0 0
 102 2 1 -0.961426 -1.412 3.83969 0 0 0
 103 2 1 -1.52274 -1.0817 5.42109 0 0 0
 104 2 1 -1.97919 0.139467 6.60894 0 0 0
 105 2 1 -1.32999 1.35493 7.73101 0 0 0
 106 2 1 -0.571682 1.65847 9.23618 0 0 0
 107 2 1 0.554485 1.04419 10.4759 0 0 0
 108 2 1 0.904773 -0.303857 11.5468 0 0 0
 109 2 1 0.573932 -0.999918 13.1306 0 0 0
 110 2 1 -0.739486 -1.3586 14.2663 0 0 0
 111 2 1 -1.9322 -0.567881 15.2848 0 0 0
 112 2 1 -2.04686 0.370161 16.7568 0 0 0
 113 2 1 -1.22168 1.40912 17.9051 0 0 0
 114 2 1 0.063169 1.51104 19.0966 0 0 0
 115 2 1 0.96142 0.803425 20.454 0 0 0
 116 2 1 1.0484 -0.506546 21.6825 0 0 0
 117 2 1 0.146775 -1.35853 23.0009 0 0 0
 118 2 1 -1.07143 -1.26328 24.2693 0 0 0
 119 2 1 -1.65366 -0.387188 25.7325 0 0 0
 120 2 1 -1.47323 0.921769 26.8114 0 0 0
 121 2 1 -0.314884 1.58774 27.9907 0 0 0
 122 2 1 0.37497 1.40989 29.5892 0 0 0
 123 2 1 1.16539 0.413664 30.7458 0 0 0
 124 2 1 0.886134 -0.876875 31.8204 0 0 0
 125 2 1 0.104651 -1.37057 33.3105 0 0 0
 126 2 1 -1.13411 -1.05259 34.5361 0 0 0
 127 2 1 -1.82671 0.0811045 35.7301 0 0 0
 128 2 1 -1.54784 0.917669 37.2708 0 0 0
 129 2 1 -0.510542 1.71664 38.3641 0 0 0
 130 2 1 0.782933 1.35931 39.5267 0 0 0
 131 2 1 1.25384 0.565742 41.0376 0 0 0
 132 2 1 1.0656 -0.85085 42.095 0 0 0
 133 2 1 -0.0466732 -1.42253 43.3474 0 0 0
 134 2 1 -0.76346 -1.24928 44.9341 0 0 0
 135 2 1 -1.3938 -0.183392 46.2033 0 0 0
 136 2 1 -1.00672 1.0792 47.3243 0 0 0
 137 2 1 -0.324186 1.49148 48.8428 0 0 0
 138 2 1 0.965791 1.1899 49.9718 0 0 0
 139 2 1 1.61114 0.0191312 51.1127 0 0 0
 140 2 1 1.40624 -0.745905 52.6351 0 0 0
 141 2 1 0.320207 -1.48644 53.7707 0 0 0
 142 2 1 -0.942328 -1.05933 54.9136 0 0 0
 143 2 1 -1.26185 -0.392499 56.4578 0 0 0
 144 2 1 -0.921299 0.797625 57.6955 0 0 0
 145 2 1 0.255606 1.32665 58.8617 0 0 0
 146 2 1 1.11952 1.0437 60.4398 0 0 0
 147 2 1 1.70382 -0.163761 61.5935 0 0 0
 148 2 1 1.21272 -1.35501 62.7748 0 0 0
 149 2 1 0.416347 -1.67294 64.3155 0 0 0
 150 2 1 -0.899337 -1.32155 65.424 0 0 0
 151 2 1 -1.41386 -0.0140641 66.483 0 0 0
 152 2 1 -1.12019 0.767872 68.0045 0 0 0
 153 2 1 0.0877678 1.44098 69.1101 0 0 0
 154 2 1 1.3434 0.954881 70.2399 0 0 0
 155 2 1 1.82136 0.00538938 71.62 0 0 0
 156 2 1 1.46046 -1.07819 72.9717 0 0 0
 157 2 1 0.286957 -1.41998 74.2315 0 0 0
 158 2 1 -0.794051 -0.727009 75.4911 0 0 0
 159 2 1 -0.936396 0.48325 76.7744 0 0 0
 160 2 1 -0.188417 1.35637 78.1007 0 0 0
 161 2 1 0.994595 1.35879 79.456 0 0 0
 162 2 1 1.90187 0.379604 80.6748 0 0 0
 163 2 1 1.71596 -0.789034 82.005 0 0 0
 164 2 1 0.682135 -1.50105 83.2195 0 0 0
 165 2 1 -0.496083 -1.22167 84.4976 0 0 0
 166 2 1 -1.05653 -0.272712 85.9161 0 0 0
 167 2 1 -0.659272 0.958277 87.1086 0 0 0
 168 2 1 0.443391 1.48634 88.4193 0 0 0
 169 2 1 1.59681 0.972759 89.6836 0 0 0
 170 2 1 2.04152 -0.165296 90.9792 0 0 0
 171 2 1 1.41678 -1.18202 92.2946 0 0 0
 172 2 1 0.0923391 -1.36567 93.5252 0 0 0
 173 2 1 -0.840315 -0.558892 94.7318 0 0 0
 174 2 1 -0.880721 0.622164 96.025 0 0 0
 175 2 1 -0.0611391 1.59215 97.2719 0 0 0
 176 2 1 1.29634 1.57849 98.4362 0 0 0
 177 2 1 2.10343 0.635536 99.6543 0 0 0
 178 2 1 2.01166 -0.487187 100.994 0 0 0
 179 2 1 1.09048 -1.24377 102.284 0 0 0
 180 2 1 -0.211913 -0.948386 103.481 0 0 0
 181 2 1 -0.676926 -0.178834 104.948 0 0 0
 182 2 1 -0.38905 1.07772 106.092 0 0 0
 183 2 1 0.838532 1.68221 107.177 0 0 0
 184 2 1 1.66474 1.56594 108.7 0 0 0
 185 2 1 2.3618 0.467206 109.9 0 0 0
 186 2 1 1.80457 -0.786622 111.023 0 0 0
 187 2 1 1.05352 -1.17384 112.542 0 0 0
 188 2 1 -0.182081 -0.819386 113.714 0 0 0
 189 2 1 -0.797481 0.36473 114.861 0 0 0
 190 2 1 -0.549377 1.20695 116.366 0 0 0
 191 2 1 0.607317 1.92141 117.509 0 0 0
 192 2 1 1.96521 1.51735 118.568 0 0 0
 193 2 1 2.2452 0.85237 120.093 0 0 0
 194 2 2 3.4621 0.4302 121.245 0 0 0
 195 2 2 3.5156 -0.678 122.297 0 0 0
 196 2 2 3.1853 -0.2091 123.87 0 0 0

Bonds
 
       1         1         1       2
       2         1         2       3
       3         1         3       4
       4         1         4       5
       5         1         5       6
       6         1         6       7
       7         1         7       8
       8         1         8       9
       9         1         9      10
      10         1        10      11
      11         1        11      12
      12         1        12      13
      13         1        13      14
      14         1        14      15
      15         1        15      16
      16         1        16      17
      17         1        17      18
      18         1        18      19
      19         1        19      20
      20         1        20      21
      21         1        21      22
      22         1        22      23
      23         1        23      24
      24         1        24      25
      25         1        25      26
      26         1        26      27
      27         1        27      28
      28         1        28      29
      29         1        29      30
      30         1        30      31
      31         1        31      32
      32         1        32      33
      33         1        33      34
      34         1        34      35
      35         1        35      36
      36         1        36      37
      37         1        37      38
      38         1        38      39
      39         1        39      40
      40         1        40      41
      41         1        41      42
      42         1        42      43
      43         1        43      44
      44         1        44      45
      45         1        45      46
      46         1        46      47
      47         1        47      48
      48         1        48      49
      49         1        49      50
      50         1        50      51
      51         1        51      52
      52         1        52      53
      53         1        53      54
      54         1        54      55
      55         1        55      56
      56         1        56      57
      57         1        57      58
      58         1        58      59
      59         1        59      60
      60         1        60      61
      61         1        61      62
      62         1        62      63
      63         1        63      64
      64         1        64      65
      65         1        65      66
      66         1        66      67
      67         1        67      68
      68         1        68      69
      69         1        69      70
      70         1        70      71
      71         1        71      72
      72         1        72      73
      73         1        73      74
      74         1        74      75
      75         1        75      76
      76         1        76      77
      77         1        77      78
      78         1        78      79
      79         1        79      80
      80         1        80      81
      81         1        81      82
      82         1        82      83
      83         1        83      84
      84         1        84      85
      85         1        85      86
      86         1        86      87
      87         1        87      88
      88         1        88      89
      89         1        89      90
      90         1        90      91
      91         1        91      92
      92         1        92      93
      93         1        93      94
      94         1        94      95
      95         1        95      96
      96         1        96      97
      97         1        97      98
      98         1        99     100
      99         1       100     101
     100         1       101     102
     101         1       102     103
     102         1       103     104
     103         1       104     105
     104         1       105     106
     105         1       106     107
     106         1       107     108
     107         1       108     109
     108         1       109     110
     109         1       110     111
     110         1       111     112
     111         1       112     113
     112         1       113     114
     113         1       114     115
     114         1       115     116
     115         1       116     117
     116         1       117     118
     117         1       118     119
     118         1       119     120
     119         1       120     121
     120         1       121     122
     121         1       122     123
     122         1       123     124
     123         1       124     125
     124         1       125     126
     125         1       126     127
     126         1       127     128
     127         1       128     129
     128         1       129     130
     129         1       130     131
     130         1       131     132
     131         1       132     133
     132         1       133     134
     133         1       134     135
     134         1       135     136
     135         1       136     137
     136         1       137     138
     137         1       138     139
     138         1       139     140
     139         1       140     141
     140         1       141     142
     141         1       142     143
     142         1       143     144
     143         1       144     145
     144         1       145     146
     145         1       146     147
     146         1       147     148
     147         1       148     149
     148         1       149     150
     149         1       150     151
     150         1       151     152
     151         1       152     153
     152         1       153     154
     153         1       154     155
     154         1       155     156
     155         1       156     157
     156         1       157     158
     157         1       158     159
     158         1       159     160
     159         1       160     161
     160         1       161     162
     161         1       162     163
     162         1       163     164
     163         1       164     165
     164         1       165     166
     165         1       166     167
     166         1       167     168
     167         1       168     169
     168         1       169     170
     169         1       170     171
     170         1       171     172
     171         1       172     173
     172         1       173     174
     173         1       174     175
     174         1       175     176
     175         1       176     177
     176         1       177     178
     177         1       178     179
     178         1       179     180
     179         1       180     181
     180         1       181     182
     181         1       182     183
     182         1       183     184
     183         1       184     185
     184         1       185     186
     185         1       186     187
     186         1       187     188
     187         1       188     189
     188         1       189     190
     189         1       190     191
     190         1       191     192
     191         1       192     193
     192         1       193     194
     193         1       194     195
     194         1       195     196
 
Angles
 
           1           1           1           2           3
           2           1           2           3           4
           3           1           3           4           5
           4           1           4           5           6
           5           1           5           6           7
           6           1           6           7           8
           7           1           7           8           9
           8           1           8           9          10
           9           1           9          10          11
          10           1          10          11          12
          11           1          11          12          13
          12           1          12          13          14
          13           1          13          14          15
          14           1          14          15          16
          15           1          15          16          17
          16           1          16          17          18
          17           1          17          18          19
          18           1          18          19          20
          19           1          19          20          21
          20           1          20          21          22
          21           1          21          22          23
          22           1          22          23          24
          23           1          23          24          25
          24           1          24          25          26
          25           1          25          26          27
          26           1          26          27          28
          27           1          27          28          29
          28           1          28          29          30
          29           1          29          30          31
          30           1          30          31          32
          31           1          31          32          33
          32           1          32          33          34
          33           1          33          34          35
          34           1          34          35          36
          35           1          35          36          37
          36           1          36          37          38
          37           1          37          38          39
          38           1          38          39          40
          39           1          39          40          41
          40           1          40          41          42
          41           1          41          42          43
          42           1          42          43          44
          43           1          43          44          45
          44           1          44          45          46
          45           1          45          46          47
          46           1          46          47          48
          47           1          47          48          49
          48           1          48          49          50
          49           1          49          50          51
          50           1          50          51          52
          51           1          51          52          53
          52           1          52          53          54
          53           1          53          54          55
          54           1          54          55          56
          55           1          55          56          57
          56           1          56          57          58
          57           1          57          58          59
          58           1          58          59          60
          59           1          59          60          61
          60           1          60          61          62
          61           1          61          62          63
          62           1          62          63          64
          63           1          63          64          65
          64           1          64          65          66
          65           1          65          66          67
          66           1          66          67          68
          67           1          67          68          69
          68           1          68          69          70
          69           1          69          70          71
          70           1          70          71          72
          71           1          71          72          73
          72           1          72          73          74
          73           1          73          74          75
          74           1          74          75          76
          75           1          75          76          77
          76           1          76          77          78
          77           1          77          78          79
          78           1          78          79          80
          79           1          79          80          81
          80           1          80          81          82
          81           1          81          82          83
          82           1          82          83          84
          83           1          83          84          85
          84           1          84          85          86
          85           1          85          86          87
          86           1          86          87          88
          87           1          87          88          89
          88           1          88          89          90
          89           1          89          90          91
          90           1          90          91          92
          91           1          91          92          93
          92           1          92          93          94
          93           1          93          94          95
          94           1          94          95          96
          95           1          95          96          97
          96           1          96          97          98
          97           1          99         100         101
          98           1         100         101         102
          99           1         101         102         103
         100           1         102         103         104
         101           1         103         104         105
         102           1         104         105         106
         103           1         105         106         107
         104           1         106         107         108
         105           1         107         108         109
         106           1         108         109         110
         107           1         109         110         111
         108           1         110         111         112
         109           1         111         112         113
         110           1         112         113         114
         111           1         113         114         115
         112           1         114         115         116
         113           1         115         116         117
         114           1         116         117         118
         115           1         117         118         119
         116           1         118         119         120
         117           1         119         120         121
         118           1         120         121         122
         119           1         121         122         123
         120           1         122         123         124
         121           1         123         124         125
         122           1         124         125         126
         123           1         125         126         127
         124           1         126         127         128
         125           1         127         128         129
         126           1         128         129         130
         127           1         129         130         131
         128           1         130         131         132
         129           1         131         132         133
         130           1         132         133         134
         131           1         133         134         135
         132           1         134         135         136
         133           1         135         136         137
         134           1         136         137         138
         135           1         137         138         139
         136           1         138         139         140
         137           1         139         140         141
         138           1         140         141         142
         139           1         141         142         143
         140           1         142         143         144
         141           1         143         144         145
         142           1         144         145         146
         143           1         145         146         147
         144           1         146         147         148
         145           1         147         148         149
         146           1         148         149         150
         147           1         149         150         151
         148           1         150         151         152
         149           1         151         152         153
         150           1         152         153         154
         151           1         153         154         155
         152           1         154         155         156
         153           1         155         156         157
         154           1         156         157         158
         155           1         157         158         159
         156           1         158         159         160
         157           1         159         160         161
         158           1         160         161         162
         159           1         161         162         163
         160           1         162         163         164
         161           1         163         164         165
         162           1         164         165         166
         163           1         165         166         167
         164           1         166         167         168
         165           1         167         168         169
         166           1         168         169         170
         167           1         169         170         171
         168           1         170         171         172
         169           1         171         172         173
         170           1         172         173         174
         171           1         173         174         175
         172           1         174         175         176
         173           1         175         176         177
         174           1         176         177         178
         175           1         177         178         179
         176           1         178         179         180
         177           1         179         180         181
         178           1         180         181         182
         179           1         181         182         183
         180           1         182         183         184
         181           1         183         184         185
         182           1         184         185         186
         183           1         185         186         187
         184           1         186         187         188
         185           1         187         188         189
         186           1         188         189         190
         187           1         189         190         191
         188           1         190         191         192
         189           1         191         192         193
         190           1         192         193         194
         191           1         193         194         195
         192           1         194         195         196
 
Dihedrals
 
           1           1           1           2           3           4
           2           1           2           3           4           5
           3           1           3           4           5           6
           4           1           4           5           6           7
           5           1           5           6           7           8
           6           1           6           7           8           9
           7           1           7           8           9          10
           8           1           8           9          10          11
           9           1           9          10          11          12
          10           1          10          11          12          13
          11           1          11          12          13          14
          12           1          12          13          14          15
          13           1          13          14          15          16
          14           1          14          15          16          17
          15           1          15          16          17          18
          16           1          16          17          18          19
          17           1          17          18          19          20
          18           1          18          19          20          21
          19           1          19          20          21          22
          20           1          20          21          22          23
          21           1          21          22          23          24
          22           1          22          23          24          25
          23           1          23          24          25          26
          24           1          24          25          26          27
          25           1          25          26          27          28
          26           1          26          27          28          29
          27           1          27          28          29          30
          28           1          28          29          30          31
          29           1          29          30          31          32
          30           1          30          31          32          33
          31           1          31          32          33          34
          32           1          32          33          34          35
          33           1          33          34          35          36
          34           1          34          35          36          37
          35           1          35          36          37          38
          36           1          36          37          38          39
          37           1          37          38          39          40
          38           1          38          39          40          41