LAMMPS (16 Mar 2018)
# 1. INITIALIZATION
#allows pair, bond, bending and dihedral interactions
atom_style molecular

  # periodic (video game) boundaries in all cartesian directions
boundary p p s

  # uses real units (instead of units based on pair potential parameters).  List of units used in manual
units real

###########
# 2. ATOM DEFINITION
##########

   ##
   # Read in data from starting configuration file
   ##

#read_data chainconfig.dat

 #use to restart
read_restart RESTART
  orthogonal box = (-400 -400 -0.0371672) to (400 400 123.895)
  1 by 1 by 1 MPI processor grid
  196 atoms
  194 bonds
  192 angles
  190 dihedrals
  2 = max # of 1-2 neighbors
  2 = max # of 1-3 neighbors
  4 = max # of 1-4 neighbors
  6 = max # of special neighbors

   ##
   # Specify the nature of the bond interactions
   ##


bond_style harmonic
bond_coeff 1 450 1.54

special_bonds lj 0.0 0.0 0.0 angle no dihedral no

angle_style harmonic
angle_coeff 1 62.1  114.00

dihedral_style opls
dihedral_coeff * 1.4110 -0.2708 3.143 0.0

mass * 14.0

pair_style lj/cut 14.0
pair_coeff 1 1 0.0912 3.95 14.0
#pair_modify tail yes

group twistables type 3
6 atoms in group twistables
group freeze type 2
6 atoms in group freeze
fix startend freeze setforce 0.0 0.0 0.0
fix startend0 twistables setforce 0.0 0.0 0.0

################
# 3.  Simulation Settings
###############

neighbor        2.0 bin
neigh_modify    every 1 delay 0 check yes



# Define some variables
variable Lx          equal xhi-xlo   # Ang
variable Ly          equal yhi-ylo   # Ang
variable Lz          equal zhi-zlo   # Ang

variable dz          equal ${Lz}/30  # Ang
variable dz          equal 123.931948666893/30  

variable zzlo        equal zlo+0.05  # Ang
variable zzhi        equal zhi  # Ang
variable vol         equal ${Lx}*${Ly}*${Lz}  # Ang^3
variable vol         equal 800*${Ly}*${Lz}  
variable vol         equal 800*800*${Lz}  
variable vol         equal 800*800*123.931948666893  
variable TEMP        equal 300.00 # K
variable TThi        equal 320.00 # K
variable TTlo        equal 280.00 # K
variable dt          equal 1.25 # fs

timestep     ${dt}
timestep     1.25

variable zlo1      equal ${zzlo}+2.7
variable zlo1      equal 0.0128327665533126+2.7
variable zlo2      equal ${zzlo}+8.4
variable zlo2      equal 0.0128327665533126+8.4
variable zhi1      equal ${zzlo}+115.5
variable zhi1      equal 0.0128327665533126+115.5
variable zhi2      equal ${zzlo}+121
variable zhi2      equal 0.0128327665533126+121

# heat layers

region          hot  block  INF INF INF INF ${zlo1} ${zlo2}
region          hot  block  INF INF INF INF 2.71283276655331 ${zlo2}
region          hot  block  INF INF INF INF 2.71283276655331 8.41283276655331
region          cold block INF INF INF INF ${zhi1} ${zhi2}
region          cold block INF INF INF INF 115.512832766553 ${zhi2}
region          cold block INF INF INF INF 115.512832766553 121.012832766553
compute         Thot all temp/region hot
compute         Tcold all temp/region cold


# 1st equilibration run
fix             1 all nvt temp ${TEMP} ${TEMP} 50
fix             1 all nvt temp 300 ${TEMP} 50
fix             1 all nvt temp 300 300 50
thermo          100
run             8000
Unused restart file peratom fix info:
  fix style: STORE, fix ID: layers_COMPUTE_STORE
Neighbor list info ...
  update every 1 steps, delay 0 steps, check yes
  max neighbors/atom: 2000, page size: 100000
  master list distance cutoff = 16
  ghost atom cutoff = 16
  binsize = 8, bins = 100 100 16
  1 neighbor lists, perpetual/occasional/extra = 1 0 0
  (1) pair lj/cut, perpetual
      attributes: half, newton on
      pair build: half/bin/newton
      stencil: half/bin/3d/newton
      bin: standard
Per MPI rank memory allocation (min/avg/max) = 9.689 | 9.689 | 9.689 Mbytes
Step Temp E_pair E_mol TotEng Press Volume 
134452000    263.55741   0.85615236    586.93194    740.98294   -2.6383403     79316447 
134452100     308.1042     6.612068    586.36193    772.06201   -2.9902655     79316447 
134452200    275.82304     24.00401    580.82114    765.14949     -2.84556     79316447 
134452300    319.20746    4.3130447    592.53529    782.39021   -2.6473205     79316447 
134452400    282.27038   -1.0413861    606.44682    769.47734   -2.9926715     79316447 
134452500     292.1086    15.465452    585.88343    771.13933   -2.9061281     79316447 
134452600    317.41221    17.395664    577.40877    779.30281   -2.5650114     79316447 
134452700    280.97958    18.532432    571.98506    753.83911   -2.7729033     79316447 
134452800    311.72018    11.674945    603.59784    796.46263    -3.091748     79316447 
134452900    266.11222    4.9313419     604.4245    764.03569   -2.6971899     79316447 
134453000    311.92348    4.7103477    588.70134    774.71969   -2.8125758     79316447 
134453100    272.26815    20.207042      574.628    753.09307    -2.998023     79316447 
134453200    310.53214    11.365458    591.61874    783.48347   -2.7529801     79316447 
134453300    310.97179    7.5331867    591.75917    780.04719    -2.713617     79316447 
134453400    301.43088    9.2151363    586.95962    771.38385   -3.0258906     79316447 
134453500    306.22978    20.761325    601.87818    800.63801   -2.7841629     79316447 
134453600    280.60167    13.507736    579.85009    756.45978   -2.6373987     79316447 
134453700    310.62111    3.0018825    600.44527    783.99815   -3.0176847     79316447 
134453800    316.19214    2.7002911    599.81165    786.30115    -2.959667     79316447 
134453900    281.97625    24.775958    569.44829    758.12518   -2.6670605     79316447 
134454000    315.13451    15.597385    592.72504    791.49687   -2.8610444     79316447 
134454100    283.07719    14.115564    589.06659    767.72302   -2.8232014     79316447 
134454200    246.46121    16.554166     578.5986     738.4103   -2.7823384     79316447 
134454300    306.02679    10.937342    591.58818    780.40603   -2.9506972     79316447 
134454400     289.3756    16.115662    566.88963    751.20716   -2.6655929     79316447 
134454500    311.88747    23.741412    576.33368    781.36216   -2.6466402     79316447 
134454600    294.77476    10.842545    577.86119    760.04391   -3.0083624     79316447 
134454700    281.99375     21.67687    578.42649    764.01447   -2.6579227     79316447 
134454800    320.58264    11.098802     592.9584    790.39842   -2.7757369     79316447 
134454900    317.19675    11.415629    571.81847    767.60723   -2.9158784     79316447 
134455000    313.93759    25.938333    575.23442    783.65148   -2.6529863     79316447 
134455100    314.45978    20.303748    571.22864    774.31464   -2.6875781     79316447 
134455200    324.39495    8.9224043    583.03642    780.51597    -2.903185     79316447 
134455300     289.4969    11.246855    599.96724    779.48647   -2.8722738     79316447 
134455400    269.85667    10.428329    590.22913    757.51379   -2.7767201     79316447 
134455500     302.9086    24.495721    576.81057    777.37433   -2.7109657     79316447 
134455600    320.26121    16.694093    576.07879    778.92725   -2.7965887     79316447 
134455700    298.73981    2.5638167    580.53194    756.74065   -2.7963578     79316447 
134455800    286.11789    10.927115     612.5485    789.78392    -2.943381     79316447 
134455900    278.14563    28.815736    562.61485    753.10495   -2.6633109     79316447 
134456000    323.51088    11.586238    577.80645    777.43596   -2.7167604     79316447 
134456100    296.61728    10.800568    591.81501    775.02673   -2.8590478     79316447 
134456200    276.32174    19.217767    566.63519    746.46717   -2.8172841     79316447 
134456300    280.28544    9.2436232    608.70128    780.86305   -2.7900144     79316447 
134456400    292.27123    6.6465242    591.19582    767.72733   -2.8726942     79316447 
134456500    306.69793    16.871723    563.90542    759.04776   -2.8249741     79316447 
134456600    329.25895    16.100894    578.16563     785.6509   -2.6620544     79316447 
134456700    291.71204    11.938682    585.70727     767.2059   -2.7808603     79316447 
134456800    299.99669    14.434467    605.59021    794.40014   -2.8994396     79316447 
134456900    313.91257    11.489627    579.60191    773.55572   -2.7423108     79316447 
134457000    312.28329     5.017428    591.66795    778.20253   -2.8012077     79316447 
134457100    310.85196    28.539106    570.43791    779.66219   -2.8087996     79316447 
134457200    277.70368    20.090389      569.737    751.24487    -2.640319     79316447 
134457300    295.09904    3.3991297    599.90713    774.83493   -2.9171943     79316447 
134457400    290.89311    12.353021    573.20407    754.64103   -2.8369665     79316447 
134457500    303.68338    26.814516    565.92294    769.25584   -2.5655728     79316447 
134457600    313.34196    14.484419    584.60431    781.22123   -2.8569522     79316447 
134457700    288.97108   -2.0597452    603.85687    769.76387   -3.0474688     79316447 
134457800    308.38673    25.922136    584.45648    789.63086   -2.5385077     79316447 
134457900    312.25501    21.564264    560.79063    763.85561   -2.7709067     79316447 
134458000    295.83144    7.6227332    614.17773    793.75484   -2.9523419     79316447 
134458100    312.46914    19.433546    574.51294    775.57166   -2.6654476     79316447 
134458200    309.93053    17.162327    575.93136    773.24328    -2.740617     79316447 
134458300    297.26124    12.230382    603.22628    788.24212   -2.9596051     79316447 
134458400    284.32366    18.436282    583.42386    767.12554   -2.6749951     79316447 
134458500    304.34685    17.446586    584.59186    778.94248   -2.7424313     79316447 
134458600    313.54597    22.275422    587.36795    791.89447   -2.8089351     79316447 
134458700    290.55512    10.729893    590.18082    769.79818   -2.9282251     79316447 
134458800    297.54113    16.680233    598.95933    788.58771   -2.6936717     79316447 
134458900    288.15954    23.958367    584.26091     775.7143   -2.7534331     79316447 
134459000     310.3484    14.756328    577.59359     772.7424   -2.8374782     79316447 
134459100    301.15901    10.362244    589.78397    775.19729   -2.8024374     79316447 
134459200    304.02483    8.4315089    581.45889    766.60725   -2.7453335     79316447 
134459300    281.66871    11.480853    580.19645    755.39948   -2.8365465     79316447 
134459400    342.51843    19.018743    572.48125    790.59156   -2.7307753     79316447 
134459500    282.67168    4.7991942    595.37576    764.48012   -2.8039763     79316447 
134459600     321.0648     1.058363    610.16631    797.84615   -2.9853265     79316447 
134459700    285.75082    26.670641    569.32919    762.09477   -2.7733719     79316447 
134459800    332.41157    23.917248    574.11961    791.25373   -2.4961301     79316447 
134459900    312.68643    2.0069756    603.19779    786.95624   -2.8933737     79316447 
134460000    304.80027    9.9299382     590.5984    777.69593   -3.0101651     79316447 
Loop time of 1.13666 on 1 procs for 8000 steps with 196 atoms

Performance: 760.122 ns/day, 0.032 hours/ns, 7038.170 timesteps/s
99.9% CPU use with 1 MPI tasks x no OpenMP threads

MPI task timing breakdown:
Section |  min time  |  avg time  |  max time  |%varavg| %total
---------------------------------------------------------------
Pair    | 0.39996    | 0.39996    | 0.39996    |   0.0 | 35.19
Bond    | 0.67715    | 0.67715    | 0.67715    |   0.0 | 59.57
Neigh   | 0.013035   | 0.013035   | 0.013035   |   0.0 |  1.15
Comm    | 0.0022597  | 0.0022597  | 0.0022597  |   0.0 |  0.20
Output  | 0.00049853 | 0.00049853 | 0.00049853 |   0.0 |  0.04
Modify  | 0.036431   | 0.036431   | 0.036431   |   0.0 |  3.21
Other   |            | 0.007323   |            |       |  0.64

Nlocal:    196 ave 196 max 196 min
Histogram: 1 0 0 0 0 0 0 0 0 0
Nghost:    0 ave 0 max 0 min
Histogram: 1 0 0 0 0 0 0 0 0 0
Neighs:    3877 ave 3877 max 3877 min
Histogram: 1 0 0 0 0 0 0 0 0 0

Total # of neighbors = 3877
Ave neighs/atom = 19.7806
Ave special neighs/atom = 5.87755
Neighbor list builds = 61
Dangerous builds = 0
velocity        all scale ${TEMP}
velocity        all scale 300
unfix           1

# Second Equilibration
fix             1 all nve
fix             hot all langevin ${TThi} ${TThi}  50.0 599804  tally yes
fix             hot all langevin 320 ${TThi}  50.0 599804  tally yes
fix             hot all langevin 320 320  50.0 599804  tally yes
fix             cold all langevin ${TTlo} ${TTlo} 50.0 27859 tally yes
fix             cold all langevin 280 ${TTlo} 50.0 27859 tally yes
fix             cold all langevin 280 280 50.0 27859 tally yes
fix_modify      hot temp Thot
fix_modify      cold temp Tcold


variable        tdiff equal c_Thot-c_Tcold
thermo_style    custom step c_Thot c_Tcold f_hot f_cold v_tdiff
thermo          4000
run             1600000
Per MPI rank memory allocation (min/avg/max) = 10.44 | 10.44 | 10.44 Mbytes
Step c_Thot c_Tcold f_hot f_cold v_tdiff 
134460000    423.08213    206.61291           -0           -0    216.46921 
134464000    284.84423    358.86751   -12.397696    33.835674   -74.023284 
134468000    422.71667    280.15184   -34.281649    78.136255    142.56483 
134472000    354.05333    442.35124   -60.647914    87.153698   -88.297905 
134476000    320.89854    214.61484   -89.627322    122.36493     106.2837 
134480000    366.64486    371.54167   -118.26256    130.07689   -4.8968143 
134484000    340.88929     430.3162   -141.65849    139.56197   -89.426905 
134488000    400.12984    378.98381   -155.42463    175.50282    21.146035 
134492000    347.66687    277.46904    -189.5392    198.31229    70.197829 
134496000     302.3674    397.32154   -179.86329     201.7628   -94.954139 
134500000    162.02191    275.35173   -240.41493    234.68416   -113.32982 
134504000    320.72332    575.31571   -265.06076    269.51068   -254.59239 
134508000    187.50979    354.93081   -295.66395    313.09983   -167.42102 
134512000    464.98801    293.43531   -299.24048    335.41894     171.5527 
134516000    328.19536    527.52972    -317.8094    345.84866   -199.33436 
134520000    273.11411    344.00204   -337.88084    370.98285   -70.887927 
134524000    356.26618    398.21678   -375.21564    393.75877   -41.950599 
134528000    379.24504    350.86442    -410.8206    420.95025    28.380626 
134532000    447.86151    293.71851   -416.47403    430.82978      154.143 
134536000    255.89282    353.69988   -407.89908    458.64209   -97.807065 
134540000    432.91661    347.68745   -437.45567    464.54125    85.229163 
134544000    360.20337     445.9381   -443.69649     469.6079   -85.734731 
134548000    375.85242    419.39898   -473.24899    492.83997   -43.546556 
134552000    531.73517    210.88771   -483.41735    531.69565    320.84746 
134556000     414.7292    293.61894   -521.05565    508.37489    121.11025 
134560000    342.40741    418.44388   -511.04413     545.9348   -76.036468 
134564000    339.28558    427.31602   -537.20569    562.81156   -88.030439 
134568000    167.49179    408.47028   -558.23557    566.28844   -240.97849 
134572000    425.27293    304.95153   -573.77717    582.65576     120.3214 
134576000    391.14118    399.75255   -592.46366    586.32297   -8.6113684 
134580000    329.29356    245.66293   -597.47366    621.63154    83.630634 
134584000    343.24573    258.92287    -628.2583    627.66368    84.322862 
134588000    453.03913    272.92559   -647.52607    657.21546    180.11354 
134592000    217.64522    415.06512   -645.31491    655.43437    -197.4199 
134596000    303.47239    316.21899    -653.0649    686.25467   -12.746604 
134600000    544.87782    359.98177   -703.41108    718.87372    184.89605 
134604000    146.80146    310.57481   -732.89202    753.41266   -163.77335 
134608000      404.284    442.83431   -759.08189    768.63864    -38.55031 
134612000    218.82223    320.90233   -760.35674    770.68092   -102.08009 
134616000    308.40979    313.15995    -786.5892    796.08012    -4.750163 
134620000    375.57551    259.95224   -819.85269    807.49516    115.62327 
134624000    361.09874    222.92919   -828.78241    825.14926    138.16955 
134628000    324.69907    346.38911     -834.161    835.33726   -21.690044 
134632000    534.17687      436.083   -827.53807    872.54777    98.093875 
134636000     580.5891    247.83354   -867.41977    879.36934    332.75556 
134640000    320.72714    464.46914   -877.80029    900.94767     -143.742 
134644000     278.5022    253.67501   -888.85693    919.37591    24.827188 
134648000    431.78393     225.9242   -920.71875    937.97219    205.85973 
134652000    480.65592      260.521   -940.04407    960.42815    220.13492 
134656000    368.64366    327.81404   -967.01639    981.40678    40.829625 
134660000    236.81842    293.34202   -981.41905    986.58682   -56.523593 
134664000    385.68994    354.86862   -1000.8142    998.79788    30.821322 
134668000    516.01981    239.62611   -1036.5596    1018.6667     276.3937 
134672000    306.97065    296.40761   -1066.4018    1073.5164    10.563042 
134676000    351.70458    327.09156    -1085.141    1089.6106    24.613025 
134680000    375.38568    416.14742   -1097.2679    1117.7656   -40.761737 
134684000    512.46563    247.24586   -1125.8772    1158.2393    265.21976 
134688000    270.22261    250.09737   -1142.1808    1184.4088    20.125242 
134692000    384.52122     384.0125   -1191.9236    1192.2606   0.50871337 
134696000    274.18761    269.33317   -1194.5798    1217.7901    4.8544433 
134700000    393.10083    355.95661   -1217.5591    1214.1726    37.144219 
134704000    421.14278    417.51812    -1241.885    1250.3957     3.624667 
134708000    273.96867    332.58711   -1266.0451    1289.6424   -58.618441 
134712000     258.7933     304.0471   -1285.0188    1298.1187   -45.253803 
134716000    282.87979    168.85626   -1311.4201    1301.3923    114.02354 
134720000      410.168    541.59621   -1333.2671    1334.2484    -131.4282 
134724000    406.32771    244.34984   -1372.3467    1368.3598    161.97786 
134728000    417.59264    440.33079   -1393.5244    1408.1222    -22.73815 
134732000    322.61228    409.04439   -1428.3478    1442.8038   -86.432114 
134736000    242.21838    266.84145   -1428.8251    1445.0644   -24.623073 
134740000    256.46843    521.61823   -1437.7626    1431.3156    -265.1498 
134744000    404.45895    375.54548   -1441.4437    1466.5968    28.913466 
134748000    318.13978    411.36956   -1462.6963    1488.2458   -93.229782 
134752000    177.47438    351.65656   -1472.9092    1481.1703   -174.18217 
134756000    598.15214    266.35723   -1501.9913    1513.0478    331.79491 
134760000    322.11449    381.53484   -1517.2431    1538.6664   -59.420352 
134764000    423.33561    371.57292   -1560.1387    1549.8214     51.76269 
134768000    305.77625    276.79545   -1551.3799    1583.5361    28.980801 
134772000    434.63056    350.65546    -1579.364    1581.3127    83.975105 
134776000    370.20422    211.83792   -1594.6345    1608.1608     158.3663 
134780000    307.80325    575.63779   -1571.4063    1592.4241   -267.83454 
134784000    359.46838    297.26891   -1630.1633    1635.9677    62.199471 
134788000    324.56991     262.1582    -1637.613    1674.8959     62.41171 
134792000    266.97355    352.74544   -1667.3787    1684.0371   -85.771894 
134796000    368.97257    335.09475   -1666.5864    1717.7746    33.877817 
134800000    292.27277    471.73609   -1701.0282    1721.3152   -179.46332 
134804000    291.58957    357.91266   -1713.9909    1738.2239   -66.323088 
134808000    232.13926    129.63851   -1737.2759    1783.8583    102.50075 
134812000     743.0551     491.7336   -1762.2127    1767.4945    251.32149 
134816000     200.5791    388.93802   -1778.7257    1804.2485   -188.35892 
134820000    337.68769    250.81851   -1762.8808    1805.1484    86.869181 
134824000    514.32191    522.16255   -1799.0926    1814.8801   -7.8406363 
134828000     392.5981    470.66134   -1841.5755    1860.7838   -78.063244 
134832000    286.08317    291.26929   -1884.4686     1899.409   -5.1861216 
134836000    518.18239    333.47701   -1916.7203    1934.9854    184.70538 
134840000    399.98636    462.10203   -1920.0495    1949.5325   -62.115666 
134844000    404.84956    161.69211   -1924.4353    1972.9867    243.15745 
134848000    277.26815    258.40566    -1961.848    1990.3196    18.862491 
134852000    328.84183    468.29405   -1983.9803    2022.3048   -139.45222 
134856000    183.25244    385.75665   -2007.9131    2044.8196   -202.50421 
134860000    209.68278    204.43066   -2043.2192    2076.5448    5.2521208 
134864000    433.55736    223.48662   -2060.2674    2103.7062    210.07074 
134868000    242.80797    244.44759   -2080.1356    2114.2391    -1.639623 
134872000    265.70901    149.86208   -2123.1674    2157.7769    115.84693 
134876000     261.7876    445.19973   -2147.4438    2161.8046   -183.41212 
134880000    536.66834     330.4246   -2204.3769    2212.9761    206.24374 
134884000    346.12197    131.07471   -2212.6862    2224.8677    215.04726 
134888000    539.90579    336.31849   -2210.2751    2251.6787    203.58729 
134892000    267.75453    287.39478     -2249.61    2258.3475    -19.64025 
134896000    283.85815    488.49029   -2255.9886    2277.1668   -204.63214 
134900000    252.39495    183.56261   -2274.7953    2283.1801     68.83234 
134904000    336.32993    264.94547   -2311.1118    2310.8693    71.384465 
134908000     312.1367    225.51105   -2313.0345    2322.2347    86.625652 
134912000    314.58467    384.14492   -2333.6527    2352.2827   -69.560249 
134916000    352.78315    229.68748   -2342.7188    2397.2528    123.09567 
134920000    203.87549    325.85189   -2359.5606    2414.2484    -121.9764 
134924000    349.45219    305.66838   -2404.2031    2428.7752    43.783811 
134928000    280.85457    328.19678   -2448.0812    2454.7777   -47.342211 
134932000    397.07011    291.15436   -2486.3927    2492.6514    105.91574 
134936000    282.90863    339.96056   -2526.2087    2536.6184   -57.051931 
134940000    424.35191    334.24149   -2563.2734    2576.8775    90.110422 
134944000    431.47139    154.53427   -2586.0336    2613.6812    276.93712 
134948000    409.96162    240.74116   -2609.1633    2648.7502    169.22046 
134952000    349.20805    307.70578   -2625.0355    2642.3828    41.502271 
134956000    309.06217    439.74774    -2653.558    2669.9151   -130.68557 
134960000    401.31167     310.8166   -2656.1053    2686.0324    90.495067 
134964000    422.26704    408.70937   -2685.7611    2711.9416    13.557663 
134968000    711.51099    290.86006   -2721.1831    2726.1261    420.65092 
134972000    401.41868    338.23948   -2736.4725    2751.6733    63.179201 
134976000    305.77444    370.66218    -2753.726    2764.4053   -64.887734 
134980000    254.79254    285.55412    -2776.175    2783.4549   -30.761582 
134984000    333.51955    419.94073   -2803.8858    2814.0859   -86.421187 
134988000    410.22513    368.94779    -2834.694    2876.0957    41.277334 
134992000     220.7878    258.79779   -2855.3013    2883.4942   -38.009993 
134996000    612.84312    141.75604   -2876.6787     2900.491    471.08708 
135000000    330.09359    287.50411   -2886.0979     2915.662    42.589473 
135004000    389.43372    348.45341   -2912.7985    2923.8825    40.980313 
135008000    364.94554    465.66669   -2914.4016    2929.5832   -100.72115 
135012000     467.4039    211.55674   -2945.0314    2974.1183    255.84716 
135016000    249.04072     455.7492   -2952.9432    2985.4446   -206.70848 
135020000    323.08824    172.07679   -2963.0279     2993.491    151.01145 
135024000    377.15074    242.92348   -2992.5927    3025.9839    134.22727 
135028000    248.85048    402.22686   -3031.1062    3055.2571   -153.37637 
135032000    190.84904    376.34516   -3039.1488    3071.0389   -185.49611 
135036000    353.72679    364.19385    -3068.734    3092.8399   -10.467059 
135040000    345.81867    301.77148   -3098.0829    3123.2819    44.047184 
135044000    294.87786    227.97983   -3113.7038    3127.5896    66.898034 
135048000    378.45407    274.59363   -3143.2912    3168.2037    103.86043 
135052000    443.55283    297.38953   -3146.7317    3172.7433     146.1633 
135056000    492.85963    361.44927   -3175.9474    3204.9199    131.41035 
135060000    331.84831    340.07714   -3191.5585    3227.1055   -8.2288313 
135064000    618.51779    322.93129   -3212.8027    3255.6704    295.58649 
135068000    317.25711    373.91263   -3220.8966    3276.7781   -56.655524 
135072000    417.87467    322.69023   -3235.1474    3279.5063    95.184444 
135076000    307.66292    417.65245   -3252.7472    3288.3706   -109.98952 
135080000    393.40901    304.38006   -3276.2685     3301.709    89.028943 
135084000    310.75435    380.62279   -3293.3066    3324.4533   -69.868432 
135088000    380.48976    380.81372   -3294.5549     3318.644  -0.32396065 
135092000    469.03119    224.92191   -3300.9296     3346.455    244.10927 
135096000    367.53079    286.25219   -3307.4163    3362.8738    81.278606 
135100000    378.18646    414.09201   -3360.2427    3377.4429   -35.905552 
135104000    272.06196    289.90552   -3403.8084    3401.7985   -17.843555 
135108000    342.85522    383.81246   -3424.2938    3453.5075   -40.957243 
135112000     249.8642    309.63152   -3460.6183    3467.8839   -59.767319 
135116000    197.18517    463.96419   -3488.9884    3503.1528   -266.77902 
135120000    295.68301    272.13027   -3524.8886    3534.8607    23.552739 
135124000    378.21062      600.778   -3538.1285    3541.7173   -222.56738 
135128000    398.20903    284.28245   -3566.8904    3567.0452    113.92658 
135132000    243.56778    289.26765   -3571.6233    3593.3814   -45.699871 
135136000    411.50966    165.17642   -3607.5909    3627.7288    246.33323 
135140000     301.3326    238.42534   -3628.3655    3636.6934    62.907254 
135144000    363.13753    415.73032   -3649.7495    3644.0682   -52.592791 
135148000    420.10142    293.95032   -3670.2135    3682.2228     126.1511 
135152000    290.51154    405.51021   -3666.4671    3693.2986   -114.99867 
135156000    478.67071    298.15456   -3689.4633    3701.8581    180.51615 
135160000    277.04102    246.10945   -3706.1113    3740.8458    30.931577 
135164000    261.28122    324.92727   -3717.6024    3749.1427   -63.646049 
135168000    543.31795    292.00213   -3759.4996    3760.2853    251.31582 
135172000     586.7435    382.00217    -3771.232    3789.2386    204.74133 
135176000    202.91919    261.83182   -3767.1746     3818.943    -58.91263 
135180000    430.06775    341.12484   -3817.5673    3814.6286    88.942913 
135184000    246.97445    249.24197   -3829.5581    3861.1907   -2.2675232 
135188000    442.20404    271.09819   -3860.1685    3863.5314    171.10584 
135192000    305.60404    306.53231   -3880.9008    3873.7746  -0.92826929 
135196000    339.21508    337.02704   -3868.5494    3895.4313    2.1880337 
135200000    302.05313    226.19847   -3883.0341    3931.9217    75.854662 
135204000    501.85951    175.44509    -3915.082    3953.8308    326.41442 
135208000    333.54203      407.603   -3935.9019    3957.2634    -74.06097 
135212000    310.97596    233.17333   -3949.3575    3969.8147    77.802634 
135216000    397.98363    366.57879     -3967.33    3980.2826    31.404832 
135220000     294.7799    228.44003   -3978.5906    4012.1847    66.339877 
135224000    180.39437    464.29823   -3993.6893     4031.733   -283.90385 
135228000    369.90192    227.29811    -4010.199    4040.3432    142.60381 
135232000    405.23417    422.88358   -4046.3495     4023.732   -17.649417 
135236000    256.76058    288.82414   -4069.1759    4075.1522   -32.063564 
135240000    386.00745    281.34575   -4089.5879     4109.279     104.6617 
135244000    263.32795    409.12283   -4071.5662    4120.5139   -145.79488 
135248000    394.48365     367.8224    -4098.619    4115.4102    26.661256 
135252000    314.49215    284.21075   -4116.1905    4155.4758      30.2814 
135256000    263.04197    395.87913   -4159.1309    4165.3271   -132.83715 
135260000    376.80208    308.32961   -4188.0783    4183.1844    68.472471 
135264000    388.26275    369.70378   -4181.1701    4206.7815    18.558971 
135268000    482.77486    247.19712   -4214.8258    4246.9942    235.57774 
135272000    363.48566    328.00174   -4203.7077    4245.9756    35.483914 
135276000    241.37806    340.83547   -4230.1317    4233.4923   -99.457418 
135280000     277.5848    302.56797   -4239.3126    4264.1687   -24.983172 
135284000    369.71972    303.21597   -4272.4147    4295.2177    66.503749 
135288000    311.15905    363.97529   -4284.6528    4317.1846   -52.816243 
135292000    445.46259    190.35517   -4313.6218    4321.5497    255.10743 
135296000    317.75082    320.26907   -4360.7466    4352.6137   -2.5182465 
135300000    405.50872    243.14678   -4343.8028    4379.3871    162.36194 
135304000    312.26456    461.95551   -4362.2276    4390.4745   -149.69094 
135308000      462.032    307.93724   -4392.2076    4407.3864    154.09476 
135312000    215.46298    307.13082   -4416.8169    4434.5656   -91.667839 
135316000    429.73496     221.2444   -4442.1955    4431.0705    208.49056 
135320000    359.27353    339.29373   -4473.7382    4461.4254    19.979804 
135324000    486.30597    321.69871   -4511.0492    4536.2398    164.60726 
135328000    270.09235    342.74972   -4526.2685    4557.3536   -72.657375 
135332000    509.51079    439.54078   -4528.6204    4570.6928    69.970008 
135336000    279.79894     402.6729   -4566.9978    4587.3311   -122.87396 
135340000    507.01906     459.2804   -4586.5968    4608.5184    47.738658 
135344000    356.06478    402.38126   -4592.8968    4621.5083   -46.316482 
135348000    443.22376    452.64566   -4620.2439    4630.8697   -9.4218952 
135352000    564.40283    244.10738   -4658.3303    4673.7313    320.29546 
135356000    669.03153    386.40028    -4693.898    4691.6804    282.63125 
135360000    421.68211    274.12967   -4661.9831    4688.4177    147.55244 
135364000    301.75423    196.35009   -4682.2776    4703.9591    105.40414 
135368000    500.93224    371.88436   -4706.7063    4717.1732    129.04787 
135372000    395.29694    264.35361   -4699.5846    4733.9616    130.94333 
135376000    346.67848     366.8022   -4729.1252    4749.1314   -20.123719 
135380000    400.68089    258.23632   -4747.6112     4778.565    142.44457 
135384000    326.00528    261.64923   -4756.6887    4789.8316    64.356052 
135388000    384.80426    488.67604   -4765.5494    4789.3978   -103.87178 
135392000    191.95235    493.24965   -4765.8503    4779.6131    -301.2973 
135396000    378.72251    332.52732   -4794.9027    4805.8288    46.195184 
135400000     362.7984    227.41215   -4807.5607    4818.4169    135.38625 
135404000    558.69702    238.14543   -4821.4114    4836.0848    320.55159 
135408000     342.2496    277.95275   -4815.1932    4838.2482    64.296841 
135412000    248.59883    197.23329   -4828.9277    4857.1714     51.36554 
135416000    571.77061    368.36638   -4855.8362    4877.4439    203.40424 
135420000    285.87566    216.60163   -4883.3783    4884.6426    69.274029 
135424000    341.67598    206.19568   -4900.1427    4894.4729     135.4803 
135428000    421.68174    345.95504   -4891.3478    4902.7166    75.726692 
135432000    282.65311     329.9335   -4901.4552    4925.7883   -47.280385 
135436000    363.03898    290.04033   -4933.3324    4937.5413    72.998646 
135440000    348.63934    352.29343   -4959.8498    4971.3514   -3.6540874 
135444000     403.7321    264.66506   -4963.4918    5007.4014    139.06704 
135448000     474.5642    216.24257    -5016.636    5044.1677    258.32163 
135452000    287.51714    392.51161   -5038.7316     5043.564   -104.99447 
135456000    317.25885    366.54212   -5060.4146    5057.6798   -49.283266 
135460000    285.92912    265.55775   -5060.7383    5101.3519    20.371367 
135464000    285.67406    313.21949   -5113.7121    5111.0464    -27.54543 
135468000    374.76268    237.80261   -5129.3999    5154.2467    136.96007 
135472000    191.09339    271.51353   -5131.5779    5137.6346   -80.420141 
135476000     281.7273    188.20038   -5132.3363     5153.001    93.526914 
135480000    456.48047    276.37176   -5134.7366     5169.175     180.1087 
135484000    425.94421     221.8488   -5170.1962    5185.6032    204.09541 
135488000     285.9083    424.49247   -5183.8026    5198.7723   -138.58417 
135492000     494.2917     412.9503   -5208.5011    5225.2789    81.341402 
135496000    467.23065    397.36696    -5220.621    5250.8216    69.863686 
135500000    579.44531    318.66919    -5235.639    5258.6331    260.77611 
135504000    271.69892    242.79346   -5213.4665    5270.1989     28.90546 
135508000    351.79528    607.24595   -5250.8846    5268.7589   -255.45067 
135512000    306.73427    577.72734   -5296.5502     5298.608   -270.99307 
135516000    306.72767    382.96823   -5311.0362    5324.7674   -76.240556 
135520000    333.93804    366.82659   -5341.5702    5357.2522    -32.88855 
135524000    198.63492    245.46742   -5372.2061    5385.8006   -46.832507 
135528000    370.01884    300.94538   -5401.2079    5392.1069    69.073459 
135532000    400.19863     279.0008   -5410.6236    5416.4909    121.19783 
135536000    284.41267    377.00913   -5421.0736    5423.7959   -92.596462 
135540000    317.54934    269.02879   -5431.5498    5462.8778    48.520551 
135544000    534.07555    584.16706   -5464.0477    5449.7395   -50.091514 
135548000    145.94398    228.08884   -5450.6452    5488.9747   -82.144861 
135552000    388.55064    523.91623   -5502.6899     5507.022   -135.36558 
135556000    269.37063    418.85624   -5514.0512    5527.9425   -149.48561 
135560000    444.13574     237.6207   -5507.4195    5526.8395    206.51504 
135564000    269.94255    373.60945   -5556.8104    5549.6844   -103.66689 
135568000    310.84309    217.46805    -5550.706    5574.5604    93.375039 
135572000    286.68191    375.04513   -5573.0511    5584.2452   -88.363219 
135576000    241.14541    248.90271   -5576.3339    5586.2821   -7.7572991 
135580000    345.96819    419.15482   -5597.2911    5618.5533   -73.186629 
135584000    432.13369    211.39212   -5612.2074     5641.233    220.74158 
135588000    327.83521    553.07163   -5615.2284    5643.4606   -225.23643 
135592000      377.142    291.49077   -5632.4842    5642.0521    85.651234 
135596000    439.68186    247.46608   -5624.0016    5650.0193    192.21579 
135600000    329.77217    293.12617   -5620.5157    5650.8841    36.646004 
135604000    523.13533    321.40567   -5653.8956    5654.7462    201.72966 
135608000    231.10672    307.40257   -5664.3156    5679.0758    -76.29585 
135612000    470.89578    302.42823   -5703.3843    5728.2959    168.46755 
135616000    393.55177     311.7088   -5721.0675     5736.101    81.842975 
135620000    580.56155     244.4136   -5733.3033    5754.4542    336.14795 
135624000    264.13827    252.71176   -5739.5642    5769.9948    11.426506 
135628000    370.39877    337.43931   -5780.5832    5796.6877    32.959454 
135632000    399.21213    303.18558   -5797.4155    5803.7764     96.02655 
135636000    233.08871    572.21642   -5800.9317    5816.6001   -339.12771 
135640000    334.99814    405.18434    -5818.997    5838.3072   -70.186199 
135644000    449.19993    402.12013   -5844.4534    5857.8111    47.079801 
135648000    243.51632     249.2308   -5860.1714    5889.7299   -5.7144835 
135652000    244.61633    184.98204   -5878.6315    5894.4624    59.634288 
135656000    378.04511    449.49672   -5873.4029    5892.3901   -71.451611 
135660000    360.59466     154.6828   -5915.1568    5918.1158    205.91186 
135664000    338.68166    565.90455   -5924.4027    5949.2516   -227.22289 
135668000    261.25227    296.94459   -5970.4371    5956.4065   -35.692319 
135672000    451.12141    194.99797   -5988.1476    5987.4409    256.12344 
135676000    315.88997    203.15741   -5995.3204    6002.6575    112.73256 
135680000    313.83678     284.7718   -6009.7368    6029.1752    29.064977 
135684000    319.01122    507.09897   -6030.7119    6062.4517   -188.08776 
135688000    455.58427    274.64877   -6071.7128    6086.7281     180.9355 
135692000    371.01124    262.33216     -6098.28    6088.0165    108.67908 
135696000    402.34687    323.88247   -6084.3548     6103.011    78.464404 
135700000     280.9365    208.07778   -6107.8443    6128.4212    72.858722 
135704000    383.16608    169.80545   -6128.7013    6163.2095    213.36063 
135708000    269.68431    373.91387   -6167.6611     6193.795   -104.22956 
135712000    542.83122    170.42613   -6228.2478    6225.3976     372.4051 
135716000    593.94927    333.92259   -6249.6153    6270.3954    260.02668 
135720000    309.00048    303.31856   -6260.0413    6290.2759    5.6819251 
135724000    352.93584    209.65963   -6274.7885    6335.3942    143.27621 
135728000    226.17831    234.62775   -6308.2113    6355.4662   -8.4494347 
135732000    232.33386    238.86906   -6340.7193    6366.3008    -6.535196 
135736000    295.93775    187.51488   -6341.4107    6379.2422    108.42287 
135740000     410.5357    291.67591   -6373.3222    6397.6657    118.85979 
135744000    322.05617    198.00155   -6402.8167    6425.0582    124.05462 
135748000    229.22887    266.76988   -6395.8482    6434.4631   -37.541013 
135752000    359.36078    202.65547   -6439.6475    6442.6708    156.70531 
135756000    446.31691    268.63738   -6445.6958    6436.6934    177.67953 
135760000    191.26794    153.46115   -6415.6794    6460.0922    37.806786 
135764000    209.22537    392.72202   -6461.7076    6468.1018   -183.49665 
135768000    398.70061    341.66169   -6452.2389    6474.7916    57.038924 
135772000    217.51706     261.3325   -6478.0488    6500.5182    -43.81544 
135776000    404.13947     531.6262   -6489.4555    6516.9901   -127.48673 
135780000     321.3688    301.07201   -6520.7531    6533.1248    20.296783 
135784000    351.85429    390.99794   -6545.4347    6553.0971   -39.143651 
135788000    237.05617     382.2007   -6557.3495    6576.8122   -145.14453 
135792000    303.64668    238.13731   -6585.6469    6614.4881     65.50937 
135796000    459.46158    140.66967   -6611.6047    6619.1125    318.79191 
135800000    469.66863    245.74841    -6636.023    6647.3112    223.92022 
135804000    515.29571    248.50814   -6652.4076     6672.447    266.78757 
135808000    262.22282    481.21354   -6650.0457    6669.4636   -218.99072 
135812000    298.63341    279.20737   -6673.9278    6680.7119    19.426043 
135816000    389.12909    303.39241   -6673.8419    6688.3064    85.736689 
135820000    384.99716     430.9998   -6681.1868    6686.5926   -46.002636 
135824000    433.33169    393.46228   -6669.8415    6704.2817    39.869411 
135828000    419.39094     313.9192   -6715.5632    6713.6063    105.47174 
135832000    353.85561    470.59624   -6734.2987    6710.5174   -116.74064 
135836000    340.12734    428.89092   -6730.9634    6746.9225   -88.763584 
135840000    201.44584    464.29187   -6733.0944    6750.8978   -262.84603 
135844000    345.31763     329.3653   -6731.6027    6767.4348    15.952331 
135848000    389.31936     252.9271   -6757.4254    6800.5392    136.39226 
135852000    228.77455     359.1018   -6774.3954    6810.1963   -130.32725 
135856000    279.19994    336.93043   -6775.3409    6813.5407   -57.730486 
135860000    565.19716    350.36176   -6796.3449    6836.3285     214.8354 
135864000    290.54324    465.13216   -6818.0207    6836.0961   -174.58892 
135868000    433.78025    290.20601   -6848.8622    6854.5909    143.57424 
135872000    223.17137    292.82592   -6871.6219    6872.8574   -69.654553 
135876000    268.12912    284.99897   -6893.9441    6902.4302   -16.869851 
135880000    339.83597    361.11034    -6917.903    6914.8083   -21.274372 
135884000    280.57961    452.17864   -6914.1996    6922.7804   -171.59904 
135888000    385.14798    254.27071   -6936.3663    6949.3011    130.87727 
135892000    422.86198    398.43689   -6957.6385    6936.5739    24.425092 
135896000    209.79628    363.84926    -6965.032    6963.7932   -154.05298 
135900000    334.32853    260.27843    -6983.091    7002.9716    74.050097 
135904000    507.48132    359.02692   -6996.3011    7014.7007     148.4544 
135908000    364.96767    449.82434   -6997.9874    7012.2531   -84.856666 
135912000    178.20227    364.99872   -7024.3368    7034.8018   -186.79645 
135916000    319.92668    444.36892   -7056.8972    7050.8012   -124.44225 
135920000    304.01948    301.67834   -7054.1137    7080.4443    2.3411391 
135924000    385.64324    296.63946   -7091.2088    7105.1322    89.003782 
135928000    243.10214    386.67004   -7109.4115    7130.7617   -143.56789 
135932000    417.89283    260.37336   -7118.7084    7132.3684    157.51947 
135936000    404.81893    360.77778   -7105.5417    7131.1506    44.041152 
135940000    331.38781    433.91088   -7121.4139    7144.3587   -102.52307 
135944000    288.08649    213.98151   -7130.5251    7165.1001     74.10498 
135948000    360.78769    241.57181   -7152.5793    7186.6525    119.21588 
135952000    311.69539    333.16406   -7167.8305     7211.422   -21.468669 
135956000     606.0471    257.34717   -7207.5498    7209.8577    348.69993 
135960000    393.82123    274.76071   -7219.0899    7241.1276    119.06051 
135964000    346.21434    448.26351   -7241.4231    7263.7896   -102.04916 
135968000      263.466    487.28722    -7259.492    7287.6747   -223.82123 
135972000    286.15137    243.26757   -7281.1108      7294.35    42.883804 
135976000    272.52994    377.22148   -7302.6419     7320.382   -104.69154 
135980000      314.811    321.72745   -7339.5396    7365.9216   -6.9164444 
135984000    490.20285    167.02687    -7375.955    7390.9693    323.17598 
135988000    572.81203    195.92106   -7409.5524    7400.3005    376.89097 
135992000    241.37074    284.93815   -7399.4392    7416.1407    -43.56741 
135996000    347.59096    484.48525   -7419.1755    7425.8962   -136.89429 
136000000    308.35474    361.80969    -7426.406    7447.9022   -53.454948 
136004000    369.72569    434.28123   -7446.2765    7431.1763   -64.555548 
136008000    396.46047    224.86076   -7472.2606    7484.7835     171.5997 
136012000      384.302    199.96732   -7476.1109    7495.7502    184.33468 
136016000    377.61207    117.51969   -7505.3144    7519.8062    260.09239 
136020000    465.09515    536.44902   -7536.9671    7532.9979   -71.353877 
136024000    215.76026    472.07719   -7553.1042    7583.2624   -256.31694 
136028000    474.59942    194.94609   -7589.6296    7603.0284    279.65333 
136032000     245.5515    238.59575    -7605.887    7616.3258    6.9557525 
136036000    297.39356    373.10291   -7627.2653    7626.7725   -75.709353 
136040000    246.53924    378.75594   -7634.8012    7655.5567    -132.2167 
136044000    381.84003    425.19318   -7649.6868    7674.5129   -43.353152 
136048000    293.01817    191.70823   -7685.5416    7718.7586    101.30995 
136052000    336.49592    298.99982   -7712.8682    7735.3426      37.4961 
136056000    290.31999     284.7178   -7738.3757    7736.3268    5.6021927 
136060000    343.19438    144.36552   -7721.6155    7741.3702    198.82886 
Loop time of 267.76 on 1 procs for 1600000 steps with 196 atoms

Performance: 645.354 ns/day, 0.037 hours/ns, 5975.499 timesteps/s
99.9% CPU use with 1 MPI tasks x no OpenMP threads

MPI task timing breakdown:
Section |  min time  |  avg time  |  max time  |%varavg| %total
---------------------------------------------------------------
Pair    | 79.229     | 79.229     | 79.229     |   0.0 | 29.59
Bond    | 134.52     | 134.52     | 134.52     |   0.0 | 50.24
Neigh   | 2.3652     | 2.3652     | 2.3652     |   0.0 |  0.88
Comm    | 0.4666     | 0.4666     | 0.4666     |   0.0 |  0.17
Output  | 0.0039108  | 0.0039108  | 0.0039108  |   0.0 |  0.00
Modify  | 49.713     | 49.713     | 49.713     |   0.0 | 18.57
Other   |            | 1.46       |            |       |  0.55

Nlocal:    196 ave 196 max 196 min
Histogram: 1 0 0 0 0 0 0 0 0 0
Nghost:    0 ave 0 max 0 min
Histogram: 1 0 0 0 0 0 0 0 0 0
Neighs:    3886 ave 3886 max 3886 min
Histogram: 1 0 0 0 0 0 0 0 0 0

Total # of neighbors = 3886
Ave neighs/atom = 19.8265
Ave special neighs/atom = 5.87755
Neighbor list builds = 11115
Dangerous builds = 0
unfix 1


# PRODUCTION

fix             1 all nve
fix             hot all langevin ${TThi} ${TThi}  50.0 52804  tally yes
fix             hot all langevin 320 ${TThi}  50.0 52804  tally yes
fix             hot all langevin 320 320  50.0 52804  tally yes
fix             cold all langevin ${TTlo} ${TTlo} 50.0 297859 tally yes
fix             cold all langevin 280 ${TTlo} 50.0 297859 tally yes
fix             cold all langevin 280 280 50.0 297859 tally yes
fix_modify      hot temp Thot
fix_modify      cold temp Tcold


variable        tdiff equal c_Thot-c_Tcold
thermo          4000

dump gigo all atom 40000 dump.cords_xyz.dat
dump_modify gigo scale no
dump vfgigo all custom 4000 dump.velo.dat id vx vy vz fx fy fz

# thermal conductivity calculation
# # reset langevin thermostats to zero energy accumulation
#
compute         ke all ke/atom
variable        temp atom c_ke/1.5/0.0019872

fix             ave all ave/time 100 40 4000 v_tdiff ave running
thermo_style    custom step temp c_Thot c_Tcold f_hot f_cold v_tdiff f_ave

#compute         layers all chunk/atom bin/1d z lower 0.05 units reduced
compute         layers all chunk/atom bin/1d z lower ${dz} units box
compute         layers all chunk/atom bin/1d z lower 4.1310649555631 units box
fix             2 all ave/chunk  100 40 4000 layers v_temp file profile.langevin

dump mydump2 all xyz 40000 prod-coord.xyz
dump_modify mydump2 element C S S

run             32000000
Per MPI rank memory allocation (min/avg/max) = 11.82 | 11.82 | 11.82 Mbytes
Step Temp c_Thot c_Tcold f_hot f_cold v_tdiff f_ave 
136060000    275.18211    343.19438    144.36552           -0           -0    198.82886            0 
136064000    310.10325    391.00019     294.7924   -21.536022    16.092831    96.207797    17.119349 
136068000      273.265    449.70105    196.73795   -22.060983    40.979546     252.9631    27.621147 
136072000    282.71731    316.90243    263.30646   -26.309871    26.790619    53.595971    31.311642 
136076000    310.30321    495.58907    391.51042   -58.405974    46.982077    104.07865    29.244048 
136080000    282.64068    322.02089    335.50249   -62.786499    68.846233   -13.481607    32.521668 
136084000    310.57205    383.35308    392.01144   -80.111527    76.697511   -8.6583562     35.92478 
136088000    291.94435    391.24365     322.0558   -101.71063    94.166401    69.187851    34.726349 
136092000     314.6838    553.38352    184.25212   -114.58412     98.62292     369.1314    34.512597 
136096000    289.81019    522.08022    225.81104   -133.48607    143.03124    296.26918    35.795514 
136100000    283.62122    306.80854    357.60173   -147.80767    145.88144   -50.793189    37.210562 
136104000    282.92238    340.64362     315.6519   -157.58829    158.63459    24.991718    40.520323 
136108000    288.86303    348.06794    447.75349   -186.48054    180.72131   -99.685547    40.479914 
136112000    285.66319    331.94721    278.74796   -210.13105    211.29172    53.199256    41.155862 
136116000    308.56303    337.73952    348.16783   -236.64756    222.77994   -10.428311    40.800494 
136120000    307.21198    410.82322    323.32287    -265.6254    248.27252    87.500347    42.059885 
136124000    269.15304     179.6846    443.39759   -259.91311    274.05793   -263.71299    38.869659 
136128000    293.37313    296.77402     256.3555   -286.77615     271.6261    40.418523    40.589729 
136132000    304.45675    484.31893    228.70993   -307.51287    299.09751      255.609    41.578746 
136136000    250.50673    190.92594    367.59912   -330.43395    336.91395   -176.67318     41.44993 
136140000    292.98929    403.66136    325.63095   -383.14755    372.01966    78.030404    41.518799 
136144000    278.71075    568.19284    224.33557   -396.25631    406.91764    343.85727    42.389795 
136148000    295.50973    423.37596    417.46197   -423.76527    418.86764      5.91399    40.782827 
136152000    294.44276    237.23015    318.49832   -429.50227     424.8196   -81.268168    40.190736 
136156000    257.92716    328.74101    360.26498   -461.63931    457.72242   -31.523969    40.431129 
136160000    285.22462    474.45188    229.34178   -474.75199    472.70867     245.1101    42.198434 
136164000     251.4707    299.59507    447.73335   -477.86894    493.22192   -148.13828     40.62298 
136168000    280.30889     376.2584    200.28156   -509.49434    508.52648    175.97684    40.434371 
136172000     294.0417    399.42898    210.97044   -536.69324     517.0942    188.45854    40.986323 
136176000    291.46231    376.14089    480.83984   -537.72258     540.6723   -104.69895    41.371989 
136180000    286.24579    199.71742    407.20101   -569.08032    590.23703   -207.48359    41.824519 
136184000    271.01281    394.04376    333.01379   -580.24773    597.89544    61.029962    41.134389 
136188000    289.96981    352.74147    292.68124   -619.40319    635.24578    60.060228    41.628308 
136192000    273.90417    435.73092    216.00996   -635.91599    649.97705    219.72097    40.848824 
136196000    301.52924    292.99112    434.98152   -654.19226      655.227    -141.9904    41.269679 
136200000    283.02966    446.26535    408.71087     -701.327    694.02328    37.554489    40.340422 
136204000    277.83887    344.68814    218.49155   -696.89392     706.3089     126.1966    41.014023 
136208000    303.78369    320.46146    445.27167   -722.52194    703.13125   -124.81022    40.879026 
136212000    284.14498    248.31513     190.9433   -722.26449     720.0631    57.371829     41.97233 
136216000    289.37261    432.21635    266.37502   -770.36238    755.06842    165.84133    42.162623 
136220000    298.22814    467.47534    422.42373    -770.5821     781.2577    45.051619    41.642751 
136224000     285.2668    327.21366     248.2188    -785.7785    791.41304    78.994851    41.223565 
136228000    295.26351    485.56008    294.02238   -801.51236    799.28182     191.5377    40.834122 
136232000    260.89081    374.83205    324.96087   -829.86944    837.18574    49.871182     40.99566 
136236000    258.07429    612.41116    299.61078   -848.22941    859.98483    312.80038     40.65276 
136240000    265.89654    269.12361    328.07118     -871.504    867.71579   -58.947565    40.595932 
136244000    259.36979    403.11873    261.44579   -893.20874    906.54769    141.67294    40.810813 
136248000    289.79667    397.94556    423.68984   -941.13532    923.43773   -25.744274    40.587575 
136252000    270.69125    343.16528    227.35579   -957.97768    959.77393    115.80949    40.413934 
136256000    296.73867    318.28714    272.28227   -969.04598    966.47144    46.004877    40.922121 
136260000    295.90994     444.9766    385.08284    -981.9874      984.437    59.893761    40.339191 
136264000    267.20476    371.06601    267.62646    -973.7565    1002.7107    103.43955    39.693959 
136268000    286.92561    362.21258    287.33691   -986.01318    997.57566    74.875672    39.875191 
136272000    278.32648    259.22636    334.07289   -1010.0565    1015.3162   -74.846532     40.09343 
136276000    283.17106    232.37636    680.24367    -1018.544    1032.4298   -447.86731    39.112966 
136280000    282.29208    603.34764    481.20757    -1052.634    1048.6598    122.14006    39.565388 
136284000    292.26793    264.55449    650.47454   -1079.3277     1070.594   -385.92006    39.432235 
136288000    255.05176    591.58488      328.535   -1073.6725     1095.486    263.04988    39.801572 
136292000    267.52374    352.72602    213.01156   -1093.7455    1108.0798    139.71445    40.301923 
136296000    280.11921     337.9223    245.14762    -1116.774    1110.3568    92.774681    40.124488 
136300000    290.00727    526.95311    235.45374    -1136.741      1137.92    291.49937    39.697777 
136304000    293.94861    476.47821    392.62907   -1129.6416    1128.9563    83.849146    39.718825 
136308000    264.59463    180.57839    287.65991   -1120.2463    1152.4613   -107.08152    39.810503 
136312000     301.0701    284.02045     680.3085   -1168.8686    1151.7219   -396.28805    39.278295 
136316000    299.81155    374.33779      446.927   -1190.3077    1170.6797   -72.589213    39.311969 
136320000    277.16406    187.53544    369.35577   -1207.8229     1224.802   -181.82033    39.087555 
136324000     261.3714    434.69991    611.40856   -1236.3767    1247.6796   -176.70865    38.736532 
136328000    285.43448    300.83039    221.22486   -1278.5858    1273.3091     79.60553    38.787622 
136332000     281.8619    490.61042    308.96593   -1304.2457    1315.6927    181.64448    39.157302 
136336000    234.37786    434.08958    237.88543   -1315.7432    1354.4243    196.20415    39.092258 
136340000    280.38153    262.55049    310.40088   -1319.1604    1330.3243    -47.85039    39.360297 
136344000    298.23397    273.30109     369.9552   -1338.6564    1340.3012   -96.654107    39.225847 
136348000    278.29998    388.40301    476.22024   -1371.5835    1370.2013   -87.817232    39.167871 
136352000    279.61607    305.90942    331.09856   -1382.1295    1377.2581   -25.189138    39.320835 
136356000    292.33571      403.091     357.4912   -1387.5934    1393.1065    45.599801    38.908282 
136360000    307.21577    418.05356    405.51596   -1429.1942    1417.2921    12.537598    38.963866 
136364000    261.94124    350.83116    177.18182   -1445.0735    1453.1859    173.64934    39.147436 
136368000    288.97043    607.26319    343.47426   -1461.1725    1444.8333    263.78893     39.52495 
136372000    265.12872    337.66593    481.59706   -1455.8542    1474.2137   -143.93113    39.387301 
136376000     284.0296     223.9643    460.25073   -1469.0769    1476.1232   -236.28643    39.318328 
136380000    276.71782    367.47334    296.29491   -1496.1063    1511.1117    71.178428    39.519609 
136384000    297.47877    367.32905    247.86789   -1522.0404    1527.9381    119.46117    39.721513 
136388000    273.36178    250.75888    215.99947   -1544.7735    1541.6038    34.759402    39.824435 
136392000    337.15429    419.07073     453.3463   -1575.1853    1532.4704   -34.275563    39.406847 
136396000    274.13232    389.71148    548.25712   -1583.9711    1578.5672   -158.54565     39.51805 
136400000    276.28877    424.10971    274.18851   -1592.3099    1598.0923     149.9212    39.671925 
136404000    253.29386    281.37447    424.27581   -1614.9419    1620.0611   -142.90134    39.629616 
136408000    285.62236    151.63038    333.87185    -1657.253    1650.0675   -182.24147    39.467355 
136412000    263.55008    287.87675    281.54121   -1677.7353    1673.8723    6.3355396    39.510547 
136416000    272.79259    344.08235    231.38368   -1706.2276     1703.227    112.69867    39.861546 
136420000    288.82853    305.46549    283.04462   -1701.8751    1704.6699    22.420871    39.373642 
136424000    277.52197    407.57299    447.30362   -1713.3932    1717.5119   -39.730626    39.778158 
136428000    253.93682     375.4645     352.2042    -1721.594    1745.3687    23.260298    39.956883 
136432000    271.52505     338.0391    176.08702   -1750.9085    1757.7028    161.95208    40.317833 
136436000    272.30924    401.29847    442.80839   -1756.9978     1760.095   -41.509922    40.304594 
136440000    289.86231     336.9735    332.62192   -1793.5924     1788.535    4.3515785    39.800076 
136444000    265.91321    359.76706     301.1929   -1802.8331    1805.6218    58.574165    40.192156 
136448000    306.76542    339.34349    304.76703   -1833.2981    1830.8374    34.576462    40.077383 
136452000    278.25974    354.49021    240.64953   -1846.4611    1846.2161    113.84067    40.103284 
136456000    276.06705     359.4121    212.76243   -1841.4693    1861.8873    146.64966    40.222569 
136460000    286.32097    467.23812    599.24466   -1876.4087    1896.9385   -132.00654    39.779465 
136464000    265.00105    275.34607    262.23017   -1896.6439    1906.0483      13.1159    40.047567 
136468000    277.29546    308.63061    463.19748   -1911.5773    1921.7748   -154.56687    40.206388 
136472000    302.34559    454.98619    243.93254   -1951.3323    1938.2247    211.05366    40.204974 
136476000    289.20207    464.14185    349.66495   -1953.2292    1937.3409    114.47689    40.207042 
136480000    285.59871    539.02907    225.58519   -1940.7621    1946.1989    313.44388    40.268445 
136484000     302.5013    334.76381     242.6072   -1962.0053    1949.4948    92.156611    40.248031 
136488000    329.55524    203.11296    678.67971   -1999.8703    1974.9691   -475.56675    40.136268 
136492000    268.19205     323.2267    361.78611   -2027.6441      2030.05   -38.559406     40.36659 
136496000    286.75418    257.97716    673.03936   -2053.5414    2057.0841   -415.06219    40.013868 
136500000    254.97022    335.23746    196.27604   -2077.7405    2089.6993    138.96141    39.824542 
136504000    291.65539    455.25812     332.7102   -2095.8605    2101.3602    122.54792    39.933962 
136508000    263.80012    174.46898    281.81665   -2120.0255    2133.5916   -107.34766    40.078861 
136512000    283.68528     390.8687     321.9258   -2152.1808    2154.6333    68.942897    39.687158 
136516000    270.66265    235.55317    408.44477   -2178.8086    2172.9805    -172.8916     39.36912 
136520000     252.6487    301.53195    414.48405   -2156.7551    2179.5035    -112.9521    39.247735 
136524000    294.93482    723.01552    427.48663   -2194.2177    2194.6495    295.52889    39.530427 
136528000    273.82977    412.82874    315.75638   -2213.1172    2241.8868    97.072353    39.664787 
136532000     269.6523    342.78595    323.01045   -2243.2365    2237.1001      19.7755    39.768639 
136536000    290.50454    260.82589    436.00381   -2261.0664    2239.9769   -175.17792    39.718301 
136540000    285.89579    365.66306    305.39427   -2287.1683    2268.2379    60.268792    39.851287 
136544000    261.25237    242.54622    383.49936   -2302.1266    2313.6433   -140.95314    39.535902 
136548000     293.1214    579.18015    256.04016   -2354.1692    2340.0213    323.13999    39.561754 
136552000    278.14926    437.87405    437.37873   -2369.1335    2369.9309   0.49531303    39.601784 
136556000     269.2305    288.80617    323.81935   -2371.8659    2377.2655   -35.013185    39.038184 
136560000    269.37083    364.32242    250.99019    -2388.364    2410.7834    113.33223    39.130882 
136564000    288.61827    471.41447     246.3539   -2428.9729    2435.2866    225.06057     38.99878 
136568000    272.36104    363.27217    399.07548   -2442.5603    2450.5797   -35.803308     39.04104 
136572000     291.7803     281.6184    322.93775   -2467.9827    2480.7292   -41.319345    38.824475 
136576000    336.46707    499.78059    349.58011   -2527.4032    2479.4197    150.20048    38.690199 
136580000    278.13655    360.22174    350.08156    -2509.682    2517.7351    10.140183    38.677228 
136584000    276.82055    366.07505    214.98731     -2514.91    2525.1205    151.08774     38.91438 
136588000     305.3472    273.33346    408.16667   -2557.8051    2533.1149   -134.83321    39.006645 
136592000    253.54734    429.83658    275.78831   -2555.7483    2555.6225    154.04828    38.982615 
136596000    290.54981    385.53972    298.60958   -2569.6139    2570.4122    86.930142    39.132503 
136600000    280.80005    443.69139    458.43416   -2572.4957    2569.9723   -14.742773    39.102961 
136604000    274.08322    378.59669    360.23766   -2581.1674    2583.7232    18.359027    39.137492 
136608000    261.83499    393.55068    281.36188   -2584.2528    2591.0847     112.1888    39.186884 
136612000    295.55165    480.73824    334.90294   -2601.4643    2592.0503     145.8353    38.836228 
136616000    286.75216    418.52479    430.89681   -2614.3192    2600.4452   -12.372025    38.868536 
136620000    307.14925    380.42413     347.4667   -2627.1187    2608.1031    32.957433    38.922301 
136624000    306.93064    336.67315    509.53686   -2631.9617    2602.6556    -172.8637    38.669758 
136628000    302.70915    399.77088    275.76284   -2637.6341     2628.998    124.00804    38.663045 
136632000    263.33367     507.9063    311.71126   -2661.4035    2669.8754    196.19504    38.251114 
136636000    261.41024    509.35606    280.12305   -2670.7061    2697.2561      229.233    38.368223 
136640000     263.5664    238.81293    332.77837   -2669.6576    2690.6283   -93.965438    38.362414 
136644000    320.00988    388.49265    287.23484   -2728.4607    2708.0608    101.25781    38.304754 
136648000    299.78484    433.56381    343.91353     -2750.13       2737.7    89.650273     38.32666 
136652000    315.75311     513.4843    613.74969   -2757.8254    2748.3991   -100.26539    38.488605 
136656000    286.46046    320.31468    431.12432   -2792.4903    2772.2001   -110.80964    38.465123 
136660000    287.09318    206.08133    468.22513   -2798.1969    2793.5068    -262.1438    38.537651 
136664000    300.48663    244.29676    408.07428   -2827.3776    2814.0307   -163.77752    38.613263 
136668000     310.6915    392.70242    312.72641   -2865.8031     2842.009    79.976011    38.691311 
136672000    315.00015    511.96162    276.75964   -2908.8413    2882.8745    235.20198     38.85619 
136676000    276.26857    189.06308    193.88452   -2913.3485     2900.566   -4.8214426    38.872216 
136680000    255.35558    329.67943    220.57287   -2934.3128    2936.3689    109.10657    38.684616 
136684000     271.3903    278.93076    404.93548   -2970.7242    2965.2619   -126.00472    38.466153 
136688000    281.83522    343.40996    409.78347   -2962.9034    2969.9614   -66.373506    38.406888 
136692000     280.7049    369.19525    288.88133   -2986.1374    2990.7863    80.313916    38.434242 
136696000    282.95846    464.03182      250.074   -3025.4603    3043.1582    213.95782    38.419189 
136700000    265.60623    514.07037    302.76355   -3055.7452    3063.6179    211.30682    38.094596 
136704000    287.97681    239.69791    251.57723   -3067.6679    3055.4767   -11.879325    38.168373 
136708000    298.42862    218.46939    430.13977   -3077.0131    3052.5005   -211.67038    38.177571 
136712000    269.37253    436.13211    230.33357   -3075.4468    3088.0801    205.79854    37.943721 
136716000    272.39641    485.28169    268.09326   -3089.3504    3091.9451    217.18843     38.06913 
136720000    289.08303    319.34219    308.01242   -3109.6824    3118.5241    11.329774    37.912551 
136724000    304.85584    281.04767    395.57387   -3140.8162    3129.5518    -114.5262    37.933103 
136728000    303.22656    486.70241    350.05315   -3164.6506    3150.1348    136.64926    37.864589 
136732000    279.65708    336.12332    375.92743   -3156.1153    3172.0206   -39.804116    37.778047 
136736000    316.08923    172.20477    305.54304   -3203.7843    3183.0807   -133.33826    37.732694 
136740000    278.06814    469.22229    231.19739   -3195.5693    3200.3217     238.0249    37.704038 
136744000    295.54657    332.96401    257.33905   -3218.6958    3207.4113    75.624961    37.723384 
136748000    260.01783    421.22931     283.4233   -3226.2844    3234.6101    137.80601    37.665681 
136752000    286.58561    345.35495    287.98508   -3243.1298    3237.2466     57.36987    37.722465 
136756000    273.30018    239.87226     348.7313   -3260.1589    3266.3959   -108.85904    37.653331 
136760000    289.45062    512.55288    328.82891   -3279.6574    3272.2246    183.72398    37.805805 
136764000    292.45709    263.31858    340.13378   -3319.7772    3302.6718   -76.815194    37.634141 
136768000    291.19804    233.24399    460.21746   -3321.7153    3317.3095   -226.97347     37.77232 
136772000    296.34154     399.3041    419.01987   -3349.6263    3337.0735   -19.715768    37.634058 
136776000    243.71075    353.70689    249.55701   -3368.9774    3386.1747    104.14988    37.573752 
136780000    285.62206    409.10344    249.73273   -3381.0687    3397.5447    159.37072    37.500049 
136784000    302.67801    248.17137    426.99053   -3448.7325    3405.6339   -178.81916    37.508115 
136788000    328.39748    396.40367    429.53434   -3458.1989    3430.4313   -33.130665     37.48998 
136792000    258.40072    284.08138    319.53326   -3485.0178    3476.8263   -35.451882    37.495153 
136796000    291.54686    253.76059    371.06379   -3495.6933    3490.9077    -117.3032    37.524947 
136800000    261.27519    323.13718    234.60298   -3491.1285    3495.6298    88.534202     37.64533 
136804000    262.29961    438.18973    255.82313   -3514.4272    3513.5863     182.3666     37.65837 
136808000    291.53291    394.25605    473.13046   -3500.7851    3509.1153   -78.874413    37.525728 
136812000    274.28672    404.24235    263.17905   -3512.0255    3530.3102     141.0633    37.613265 
136816000    249.02969    254.75971    302.92287   -3521.8012    3541.7734   -48.163156    37.575299 
136820000    298.63125     575.6262    327.61135   -3532.9916    3546.7339    248.01485    37.507612 
136824000    266.27267    241.59733    180.59224   -3556.7477    3560.0823    61.005089    37.785789 
136828000    303.39786    415.01625    352.34386   -3610.6584    3583.5948    62.672384    37.903764 
136832000    281.45854    506.71225    284.30112   -3606.4684    3620.1207    222.41113    37.847827 
136836000    292.43014    477.28989    294.11961   -3636.5842     3628.675    183.17028    37.662703 
136840000    301.96446    465.25768    432.10718   -3664.1001    3655.5806    33.150496    37.694404 
136844000     311.2275    400.06289     336.2658   -3652.0841     3651.633    63.797085    37.756112 
136848000    302.92544    161.48341     206.8163   -3693.2515    3674.1252   -45.332888    37.620729 
136852000    294.30615    265.64596    215.18829   -3690.9001    3688.8575    50.457673    37.734869 
136856000    259.69347    381.01427    530.08717   -3693.2892    3691.0368    -149.0729    37.527839 
136860000    278.35872    454.67557    387.71682    -3691.558     3696.384    66.958756    37.420962 
136864000    294.82123    301.39887    359.60582   -3721.6692    3711.3691   -58.206957    37.596949 
136868000     283.8429     300.5472    200.70596   -3727.3233     3717.413     99.84124     37.52845 
136872000    296.49388    310.37406    303.86042   -3731.0185    3742.4177    6.5136399    37.499629 
136876000     271.2635    354.60604    496.08165   -3746.3601    3753.1791   -141.47561    37.497322 
136880000    248.54189     486.1165    253.68886   -3791.7433    3792.6494    232.42764     37.77702 
136884000    272.70122    166.96782    273.37754   -3791.9945     3803.638   -106.40972    37.703607 
136888000    260.42006    479.00407    359.18392   -3806.0442    3809.1035    119.82014     37.63525 
136892000    289.15629    354.99184    404.64727   -3818.8888    3818.7224   -49.655434    37.625734 
136896000    289.71306    390.38777    491.31772   -3832.6939    3827.2729   -100.92995    37.513209 
136900000     301.4457    302.13336    348.37131   -3859.0137    3840.8657   -46.237947    37.396283 
136904000    265.38138    285.72086    326.86115   -3843.2349    3874.7063   -41.140286    37.341277 
136908000    228.61797    218.85252    301.05432   -3858.0289    3873.8707   -82.201793     37.32436 
136912000    280.19959    367.24751    377.69894   -3906.0097    3896.0948   -10.451427    37.278632 
136916000    265.41068    650.58305     248.5188   -3904.4663    3918.6558    402.06425    37.283337 
136920000    269.44403    247.76113     221.2324   -3919.1137    3916.7314    26.528725    37.397685 
136924000    263.31633    351.62941    487.62154   -3933.4506    3941.1056   -135.99212    37.516839 
136928000    287.40104    472.05624    186.42336   -3954.0917    3937.3212    285.63288    37.659099 
136932000    302.59108    577.88139    377.63483   -3950.2563    3935.1505    200.24656    37.730405 
136936000    310.71729    327.04623    500.90357   -3955.4778    3947.4043   -173.85734     37.76526 
136940000    266.64313    522.91693    268.05028    -3952.234    3966.7685    254.86666    37.900244 
136944000    303.20687    384.39571    360.49986   -3977.7991    3980.0056    23.895845    37.832164 
136948000    285.01633    411.44926    293.30415   -4020.1083    4012.7154    118.14511    37.695376 
136952000    264.14317     552.5071    274.59929   -4012.5252    4032.8522    277.90781    37.574733 
136956000     293.4096    482.42022     213.6021   -4040.3086    4041.6049    268.81813    37.538814 
136960000    271.17655    232.13745    276.72544   -4051.1291    4063.5234    -44.58799    37.606286 
136964000    259.19297    387.54137    234.72479   -4076.1153    4086.9108    152.81659     37.64187 
136968000    256.28382    454.28465    295.01406   -4081.1468    4096.2321    159.27058    37.708802 
136972000    244.16703    395.84123    163.55599   -4100.0001    4126.7532    232.28524    37.860672 
136976000    279.60852    451.00493    283.09693   -4116.5798     4109.624      167.908    37.865747 
136980000    280.82293    407.71184    334.15663   -4115.8337    4108.1295    73.555212    37.785564 
136984000    290.25072    225.63472    284.78828    -4142.874    4140.5379   -59.153555    37.719341 
136988000    265.79599    253.31466    375.08358   -4171.3376    4182.2237   -121.76892    37.496663 
136992000    278.50343    241.15892     401.5634   -4200.7005    4200.1221   -160.40448    37.535903 
136996000    297.01807     471.0887    330.71881   -4223.8478         4225    140.36989     37.25886 
137000000    266.01237    228.63613    416.40849    -4229.015    4238.2561   -187.77236    37.410787 
137004000    243.15664    289.58644    244.80741   -4238.0019    4249.5934    44.779033    37.322605 
137008000    306.15495    259.76965    326.42808   -4249.7843    4233.3565   -66.658431    37.169676 
137012000    261.61663     485.3085    288.79782   -4250.7614    4272.9373    196.51068    37.108992 
137016000     297.6769    333.25967    315.39535   -4288.0416    4272.7384    17.864323     36.95168 
137020000    285.98089     333.7693    254.15407   -4290.8694    4286.2033    79.615228    36.937375 
137024000    308.02494    276.97413    281.89396   -4313.0145    4288.9544   -4.9198331    37.058134 
137028000    291.55846     355.6531    261.99191   -4305.7675    4304.5054     93.66119    37.247982 
137032000    293.37817    396.07006    318.99683   -4336.1235     4332.299    77.073227    37.274782 
137036000    297.63161    317.80131    254.03824    -4354.036    4351.8283    63.763068    37.235789 
137040000    283.26011    308.95192     190.0598    -4376.319    4372.3686    118.89212    37.427708 
137044000     274.3758    361.43862    227.98077   -4371.7696     4385.103    133.45786    37.527484 
137048000    257.25906    398.18745    241.27657   -4413.1651    4430.1403    156.91088    37.580139 
137052000    290.68176    423.50561     433.6655   -4429.4069    4430.6544   -10.159887    37.541413 
137056000    277.86273    398.73683    214.59467   -4437.1398    4447.4712    184.14216    37.516231 
137060000     279.3186    317.50639    361.23101   -4472.1157    4477.3685   -43.724627    37.580488 
137064000    281.65737    373.09523    202.52472    -4509.968    4495.7042    170.57052    37.360784 
137068000    279.40175    257.02703    520.28641   -4499.7593    4502.9225   -263.25939    37.317846 
137072000    279.45018    440.49631    409.31844   -4509.9848    4515.5686    31.177875     37.33193 
137076000    268.74175    186.70284    304.03275   -4514.3704    4533.7115   -117.32991    37.388669 
137080000    242.92741    254.67248    342.04451   -4550.0781    4555.4205   -87.372034    37.536512 
137084000    276.05992    427.55218    390.57008    -4545.731     4556.797      36.9821    37.578046 
137088000    257.76562    361.05804    211.97616   -4561.1915    4585.6561    149.08188    37.804413 
137092000    297.83403    527.26078    261.58558   -4559.9135    4547.6434     265.6752    37.892143 
137096000    263.09215     203.6141    304.49794   -4569.0607    4568.0505   -100.88385    37.807337 
137100000    278.86357     286.4135    332.96748   -4599.9522    4598.3487   -46.553978    37.816676 
137104000    259.98341    220.01301    465.03731   -4604.2253    4616.3686    -245.0243    37.814519 
137108000    301.76591    840.73831    196.06949   -4653.3355    4621.5404    644.66882    37.996746 
137112000    285.43023    520.48803     208.0631    -4674.862    4664.0717    312.42494    38.151494 
137116000    270.80767    579.86524    302.49346   -4680.4919    4684.2204    277.37178    38.224523 
137120000    284.84345    255.03855    284.40327   -4693.6885    4680.2347   -29.364719     38.25755 
137124000     271.2773    196.62289    373.33855    -4681.568    4686.5164   -176.71566    38.368692 
137128000    274.27945    309.01322      395.705   -4684.6526    4709.5404    -86.69178    38.352141 
137132000    290.51746    334.78739    386.21103   -4724.5203     4705.822   -51.423633    38.336771 
137136000    295.76936    491.55592    513.52274   -4748.5508    4733.0115   -21.966824    38.353861 
137140000    299.62227    320.59163    230.51482   -4757.9879    4749.3369    90.076805    38.347591 
137144000    302.66963    282.69065     345.1057   -4771.2639    4740.5384   -62.415055    38.238355 
137148000    280.12547    234.02302    364.49212   -4792.9622    4791.0521    -130.4691    38.252816 
137152000    305.99484    340.32979    398.69374   -4816.2823    4806.7231   -58.363955    38.220742 
137156000    290.85462    393.31627    224.39812   -4843.7499    4828.6765    168.91815    38.302797 
137160000    330.30392    404.25794    570.05101   -4885.2732    4845.8312   -165.79306    38.317482 
137164000    299.66239    239.05673    502.39651   -4904.9499    4880.2682   -263.33978    38.252047 
137168000    291.01594      402.618    301.68907   -4919.3677    4900.4741    100.92892     38.13995 
137172000    291.02881    200.59635    275.32762   -4911.8691    4913.2766   -74.731265    38.222992 
137176000    253.91895    428.63337    296.74305   -4930.4811    4947.7413    131.89031    38.327741 
137180000    278.83053    349.11653    268.48447   -4950.4543     4957.964    80.632062     38.31372 
137184000    288.90739    362.07961    362.39755   -4966.5474    4965.7781  -0.31794162     38.33865 
137188000    269.81478    256.73444    250.66918   -4965.0887    4961.2325    6.0652658    38.379233 
137192000    261.83713     268.7158    383.18075   -4966.6527    4990.2317   -114.46495    38.513719 
137196000     275.5441    371.59009    254.50719   -4985.8415    5009.3233     117.0829    38.525108 
137200000    280.32716    415.17704    438.78276   -4993.1339    4990.0929   -23.605717    38.489928 
137204000     282.2795    178.61439    262.61398   -5017.3727    5015.0158   -83.999588    38.561501 
137208000    304.92139    488.56313    400.63343   -5045.6351     5031.335    87.929699    38.507512 
137212000    298.58467    333.89226    236.60621    -5030.656    5009.5528    97.286053    38.717943 
137216000     300.9487    199.21646    370.48787   -5039.5982    5025.8255   -171.27141     38.71905 
137220000    283.90042    368.22728     376.4069   -5045.6942    5047.3566   -8.1796238    38.663609 
137224000    281.47357    363.90561    416.23134   -5038.9125    5050.2083   -52.325729    38.610101 
137228000    305.87201    459.23999    320.99665   -5050.8781    5032.0314    138.24334    38.451069 
137232000    308.41733    530.20414    366.55105   -5061.9083    5039.9329    163.65309    38.552309 
137236000    284.83981    224.45264    406.69837   -5074.3378    5066.1878   -182.24572    38.543814 
137240000    291.15405    345.23578     403.5445   -5102.7537    5097.0933   -58.308719    38.551497 
137244000      300.768    260.95552    310.33899   -5130.3857    5101.8979   -49.383468    38.492725 
137248000    278.26385     229.0852    356.86047   -5126.6964    5134.4971   -127.77527    38.564105 
137252000    250.42125    320.24823    338.69587   -5142.1407    5171.3889   -18.447638    38.522158 
137256000    259.01328    360.58753    326.72874   -5182.1076    5182.8468    33.858795    38.504147 
137260000    305.61639    629.64942    331.29599   -5227.1089    5210.8515    298.35343    38.453019 
137264000    286.34524    319.59195    392.29914   -5264.7217    5246.8482   -72.707194    38.583741 
137268000    294.21316    233.65162    271.93181   -5263.5458    5270.1155   -38.280194    38.593172 
137272000    250.81255    256.01498    315.58077   -5277.1591    5289.7948   -59.565788    38.493386 
137276000    276.15472    277.58422    288.63783   -5293.5795    5307.6869   -11.053613    38.559802 
137280000    262.46052    392.61374    393.79473   -5305.2657    5336.5842   -1.1809938    38.512032 
137284000    267.93253    282.23197    335.93062   -5313.7855    5313.0621   -53.698653    38.341798 
137288000    273.20288     281.4284    355.16499   -5307.5085    5313.7707    -73.73659     38.47041 
137292000    300.50061    445.89085    189.17548   -5332.7018     5324.307    256.71536    38.455005 
137296000    313.22244    436.28336    388.06555    -5377.397    5342.0232    48.217807    38.336335 
137300000    298.54243    479.63892    243.06547   -5363.7624    5354.3391    236.57345    38.383002 
137304000    292.98491    503.89938    451.83809   -5386.5971    5373.7588    52.061296    38.485031 
137308000    311.25705    293.83963    167.79161   -5390.7673    5362.4178    126.04803    38.552597 
137312000    298.74585    369.97789    353.20782   -5379.8255    5368.4359    16.770073    38.506019 
137316000    297.34504    212.41221    297.35208   -5386.9006    5382.9027   -84.939871      38.4662 
137320000    297.26406    296.75885    441.85376   -5415.0881     5398.608   -145.09491     38.51474 
137324000    272.61858    371.12193    527.64121   -5418.9251    5416.9211   -156.51928    38.531259 
137328000    282.59442    360.85388    487.83176    -5438.091    5438.1472   -126.97789    38.525091 
137332000    282.57959    299.94069    400.16559   -5461.6674    5462.7994   -100.22491    38.576441 
137336000    264.99662     402.0492    266.94054   -5454.3024    5458.9075    135.10865    38.622043 
137340000    293.87718    389.94588    406.83998   -5477.1441    5481.9917   -16.894099    38.602171 
137344000    299.65736    294.69262    201.94022    -5486.891    5490.7001    92.752402    38.625548 
137348000    269.59818    353.61831    238.17715   -5513.2817     5518.187    115.44116    38.743655 
137352000    267.09551    469.18595    333.78758   -5536.2409    5555.8645    135.39837     38.79566 
137356000    288.41624    609.06782    455.91656   -5562.4818    5569.0441    153.15126    38.769027 
137360000    274.33387    373.97434    316.43854   -5612.7562    5595.0087    57.535798     38.74805 
137364000     301.9635    376.26239    239.26863   -5624.2804     5602.035    136.99375    38.741659 
137368000    325.87053    338.91859    311.63713   -5649.6137     5625.419    27.281458    38.783125 
137372000    295.92419    387.56184     217.7371   -5652.8005     5649.421    169.82474    38.615451 
137376000    313.83615    330.52778    386.38226    -5673.588    5656.8859   -55.854478    38.596644 
137380000    275.34631    555.13611    229.55596   -5684.4707       5679.4    325.58014    38.635761 
[...]
167328000    272.85034    170.21048    385.57869   -143990.81    144019.83   -215.36821    36.848195 
167332000    277.37502    254.15452    170.63382   -143990.27    144016.66    83.520701    36.846571 
167336000    266.94938    268.66085    218.17165   -144013.68    144048.51      50.4892    36.846677 
167340000    285.57876    249.15009    356.91597    -144030.1    144059.34   -107.76588    36.846919 
167344000    251.45504    267.90461    222.63931   -144056.06    144100.08    45.265296    36.839489 
167348000    307.83071    488.57339    215.27533   -144102.84    144106.79    273.29806    36.843033 
167352000    303.57585    511.75206    389.92561   -144128.06    144144.01    121.82645    36.842758 
167356000    258.83415    372.17806    270.80397   -144115.87    144168.09    101.37409    36.842663 
167360000     287.0072    613.36195    340.74201   -144157.18     144173.7    272.61994    36.848384 
167364000    294.42911     249.7099     288.2861   -144181.61    144203.18   -38.576205    36.848645 
167368000    259.90261    313.17593    376.38278   -144203.94    144228.37   -63.206848    36.852551 
167372000    265.79003    532.61072    213.17182   -144213.01    144253.31     319.4389    36.854676 
167376000    309.22437    411.06629    265.26463   -144248.35    144247.04    145.80167    36.855088 
167380000    272.40058    223.72955    322.78251   -144235.38    144253.43   -99.052953    36.847441 
167384000    294.79206    532.09949    264.47054   -144242.84       144245    267.62895    36.849642 
167388000    259.35428    371.57462    164.75809   -144248.28    144270.91    206.81653    36.843987 
167392000      267.241    359.29869    323.45579   -144263.01     144288.5      35.8429    36.844878 
167396000    305.61026    373.21392    403.70773   -144302.05    144296.89   -30.493818    36.840623 
167400000    287.40599    276.74258     344.3196   -144328.48    144363.03   -67.577022    36.836772 
167404000     280.6135    561.95264    321.62442   -144358.57    144363.22    240.32822    36.840668 
167408000    260.55122    307.03556    182.00317   -144353.28    144399.63    125.03239    36.841329 
167412000     286.2949    429.77615    292.76657   -144364.77    144384.16    137.00958     36.83764 
167416000     257.7156    242.34705    314.69559   -144357.99    144392.86   -72.348538    36.835633 
167420000    284.27701    371.24367    238.70396   -144370.17    144398.71    132.53971     36.83325 
167424000    269.49229    370.73554    363.51278   -144384.65    144401.07    7.2227606    36.839131 
167428000    271.46117    271.40389    234.46613   -144389.52    144424.84    36.937761    36.839416 
167432000    301.01123    438.01382    360.04733    -144421.3    144438.69    77.966489     36.83986 
167436000    299.90624    248.88137    462.69922   -144434.65    144449.98   -213.81784     36.83419 
167440000    254.05994    326.05502    368.58049   -144435.34    144465.98   -42.525468    36.834748 
167444000    274.10061    298.98418    251.56694   -144448.58    144473.26     47.41724     36.83295 
167448000    288.23393    331.19222     203.7632   -144476.92    144485.55    127.42902    36.833744 
167452000     294.5682    498.87251     430.0291   -144488.37    144499.24    68.843404    36.839947 
167456000    282.84183    496.83749    302.67277   -144491.93    144506.78    194.16471    36.843661 
167460000    308.87154    385.08535    255.45687   -144520.02    144525.28    129.62848    36.839638 
167464000    304.82998     345.1809    282.31105   -144545.56    144535.29    62.869851    36.839662 
167468000    262.03707    296.87327    315.50097   -144548.76    144579.86     -18.6277    36.836674 
167472000    274.79339    441.77267    265.42221   -144561.65    144591.61    176.35046    36.834127 
167476000    284.64575    555.88785    439.73856   -144567.13    144596.18    116.14929    36.837853 
167480000     293.7231    392.94984    399.15327   -144604.28    144629.03   -6.2034262    36.839952 
167484000     285.1587    466.86313    214.54543   -144606.22    144650.35     252.3177    36.843714 
167488000    251.77579    410.03759    286.12144   -144637.19    144678.71    123.91615    36.842769 
167492000    265.94597      160.795    201.41685   -144667.79    144686.45   -40.621855    36.838392 
167496000    291.80769    261.99084     319.4053   -144686.74    144708.86    -57.41446    36.838206 
167500000    269.45884    226.55795    278.51729   -144734.85    144763.94   -51.959332     36.83538 
167504000    294.78936    299.28625    401.55764   -144735.81    144765.05   -102.27139    36.835821 
167508000    291.77848      443.076    458.85791   -144770.93    144780.11   -15.781911    36.834869 
167512000    292.95931    424.77641    332.15933   -144747.38    144781.07     92.61708    36.836138 
167516000    308.52727    436.20945    296.33964   -144809.11    144813.65    139.86981    36.835155 
167520000    254.77293    261.95902    395.93193   -144825.69    144863.72    -133.9729    36.839627 
167524000    269.88592    234.91269    427.56803   -144831.77    144853.08   -192.65533    36.839657 
167528000    259.98838    316.93894    401.30835   -144841.04    144874.26   -84.369407    36.841181 
167532000    272.04579    290.69653    501.67967   -144856.04    144889.44   -210.98314    36.840746 
167536000    291.97366    230.11906    400.12884   -144868.94    144885.43   -170.00978    36.838282 
167540000    292.41191     286.3645    336.47699   -144902.72    144919.47   -50.112486    36.836098 
167544000    271.18265     364.5613    229.77426    -144904.7    144906.24    134.78704    36.835336 
167548000    273.81384    258.94145     284.0455   -144910.97    144923.99    -25.10405    36.834218 
167552000    256.98005    435.75919    278.80285    -144909.7    144942.14    156.95633    36.831896 
167556000    305.58547    356.17706    355.59428   -144921.33    144935.84   0.58277749    36.835178 
167560000    271.77959    411.80338    470.45232   -144921.87    144958.25   -58.648941    36.837078 
167564000    279.05009    286.41129     327.5754   -144927.61    144947.92   -41.164108    36.836173 
167568000    253.29126    428.18815    333.85448   -144921.68    144967.15    94.333661    36.839052 
167572000    263.34445    383.47644     317.6761   -144927.11    144956.49    65.800341    36.843756 
167576000    265.79061    335.23685    288.53131   -144944.89    144978.45    46.705545    36.843365 
167580000    300.17877     286.9799    379.17526   -144966.86    144984.86   -92.195358    36.846966 
167584000    278.93187    664.64585    295.81869   -144985.91    145014.21    368.82716    36.852579 
167588000    277.58544    453.50797    270.13488   -145019.42    145061.71    183.37309    36.851519 
167592000    280.06253    402.70513    398.95829    -145035.7    145069.47    3.7468401    36.848913 
167596000     275.5579    480.39874    211.35836   -145067.09    145079.06    269.04038    36.847705 
167600000    273.95451    316.71499    537.20767   -145079.93    145103.13   -220.49268    36.847159 
167604000    303.64402    370.98519    217.60042   -145094.67    145115.78    153.38477    36.844575 
167608000    282.53875    430.21174    343.93913   -145110.93    145154.53    86.272608    36.847173 
167612000    278.94102    376.91662    427.67366   -145146.18    145164.21   -50.757035    36.849032 
167616000    306.36143    187.75885    380.93398   -145165.99     145169.3   -193.17514    36.841309 
167620000    311.07596    437.00753    226.29726   -145183.18    145189.05    210.71028    36.846491 
167624000    264.97511    556.34048    324.88486   -145186.55    145238.38    231.45563    36.845367 
167628000    301.45115    250.80262     489.7902   -145209.34    145220.76   -238.98758    36.844064 
167632000    286.18546    577.95545    307.50526   -145205.29       145215    270.45019    36.848492 
167636000    256.05881    232.67454    329.91445   -145199.07    145234.12   -97.239914    36.844057 
167640000    261.44244    400.49928    303.45661   -145215.89    145261.57    97.042673    36.843181 
167644000    281.29802    286.37667    215.75509   -145245.78    145277.38    70.621578    36.843368 
167648000    276.26766    269.94052    389.90292   -145256.86    145288.56    -119.9624    36.840287 
167652000    277.83158    396.54432    306.89018    -145270.5    145295.68    89.654136    36.838399 
167656000    286.17716    230.69225    473.41223   -145291.63    145311.94   -242.71998    36.842561 
167660000    283.14149    612.96327      226.774   -145323.02    145352.32    386.18927    36.842022 
167664000    269.07617    416.56432    278.86424   -145334.52    145369.87    137.70008    36.839891 
167668000    263.96979    264.93789    326.31509   -145327.19    145362.22   -61.377209    36.843295 
167672000    286.42981    142.91857    434.33038   -145357.39    145386.45   -291.41181    36.838675 
167676000    293.89489    335.06409    576.10459   -145361.09    145368.72    -241.0405    36.834118 
167680000    313.02037    721.55161    275.86827   -145366.65    145371.84    445.68335    36.841106 
167684000    280.44326    401.91196    303.80574   -145373.25       145404    98.106227    36.840349 
167688000    259.71011    454.67409    391.15284    -145389.2    145410.61    63.521248    36.840814 
167692000    238.21008     392.0104    184.53526   -145385.54    145441.23    207.47514    36.840675 
167696000    262.11878    330.02737    272.19332   -145405.16     145442.9    57.834054    36.842393 
167700000    288.15181    255.83561    226.57722   -145449.45    145472.81    29.258395    36.844351 
167704000    266.00712    552.04579    405.44054   -145453.83    145495.17    146.60525    36.844129 
167708000    293.51116    425.46277    391.91482   -145482.88    145498.59    33.547947    36.849973 
167712000    287.68016    374.02477    341.85851   -145499.97     145502.3    32.166262    36.849056 
167716000    281.06807    418.05844    326.82991   -145506.22    145530.13    91.228527    36.850833 
167720000    307.62942    508.05984    244.40914    -145540.9    145523.95     263.6507    36.853942 
167724000    263.99874    472.52963    455.35719   -145528.08    145568.16    17.172437    36.856658 
167728000    288.53161    492.63282    330.25514   -145553.23     145562.9    162.37768    36.855525 
167732000    295.25289    282.70562    288.13963    -145576.6    145587.77   -5.4340021     36.85381 
167736000    289.00162    458.43313    205.95266    -145592.7    145607.61    252.48047    36.853165 
167740000    299.69427    405.07962    226.20093   -145593.17    145612.66     178.8787    36.856277 
167744000    286.50372    375.03777     240.5248   -145594.65    145604.27    134.51297    36.857891 
167748000    262.33673     478.7838    240.42249   -145594.36    145629.28    238.36131    36.860099 
167752000    290.40992    563.18554    445.76069   -145604.35    145630.35    117.42485    36.857949 
167756000     270.1392    259.73889    338.80211   -145607.51    145644.74   -79.063224    36.856932 
167760000    264.94494      269.494    421.30703   -145622.46    145654.09   -151.81303    36.856119 
167764000     302.3579    451.32002    294.14001   -145648.95    145666.18    157.18001     36.85959 
167768000    285.67225    207.21269    195.30175    -145662.5    145687.07    11.910942    36.859897 
167772000    285.33743    298.60413    194.43017   -145662.57    145698.22    104.17397    36.860697 
167776000    296.15048    368.18577    223.70132   -145707.41     145707.3    144.48445     36.86667 
167780000    317.48471    694.23888    225.97005   -145743.41    145753.87    468.26884     36.86656 
167784000     252.6713    304.33551    258.56756   -145763.02    145792.47    45.767956    36.864107 
167788000    275.47733    192.21658    320.06477   -145771.08    145795.96   -127.84819        36.86 
167792000     261.6746    275.62633    462.90115   -145785.87    145831.29   -187.27482    36.857539 
167796000    297.77836    214.35105     267.4573   -145822.88    145834.77    -53.10625    36.854299 
167800000    281.77892    390.86201    298.86889   -145832.64    145863.16    91.993122    36.853667 
167804000    309.38342    341.23146    274.52962   -145843.54    145857.64    66.701839       36.854 
167808000    276.43032    325.53656    262.42452   -145866.22    145893.21    63.112043    36.851676 
167812000    291.57331    653.13302    482.58219   -145905.21    145903.37    170.55082     36.85507 
167816000    315.86865    563.23898    357.62538   -145905.11    145914.98    205.61359    36.857343 
167820000    263.07508    276.26262    246.32309      -145899    145937.13    29.939528    36.857839 
167824000    272.01796    271.76948     442.5151    -145908.3    145938.02   -170.74561    36.856193 
167828000    254.28384    192.17617    317.69775   -145902.87    145948.38   -125.52158    36.855048 
167832000    284.09534    373.81349    447.50178   -145940.97    145964.05   -73.688289     36.85593 
167836000    299.34689    511.04425    130.45981   -145986.23    146003.78    380.58444    36.861881 
167840000    265.16381    449.78919     301.3727   -145984.42    146008.68    148.41649    36.868178 
167844000    264.33256    304.08717    255.58282   -145975.75    146025.18    48.504345    36.876074 
167848000    277.87287    581.57899     212.6867   -146028.95    146063.93    368.89229    36.879456 
167852000    278.21827    308.11954     336.8874   -146048.75    146071.36   -28.767859    36.879537 
167856000    269.46418    453.47392     340.5983   -146061.69    146081.01    112.87562    36.883771 
167860000    240.84817    345.12756    351.75251   -146074.77    146105.19   -6.6249504    36.886045 
167864000    280.27905    353.94679    291.30137   -146100.61    146131.73    62.645417    36.886509 
167868000    286.92444    418.58784    293.91602   -146134.17    146144.71    124.67181    36.887492 
167872000    279.84724     483.8948    377.53591    -146136.8    146166.92    106.35889    36.891116 
167876000    257.88545    385.13253    421.99902   -146158.04     146185.3   -36.866488    36.893332 
167880000    270.75649    245.01993     147.7241   -146172.13    146220.11    97.295831    36.892932 
167884000    291.53604     294.8777    340.25424   -146208.21    146224.93   -45.376543    36.896462 
167888000    316.15398    499.28833    351.35989   -146226.31    146229.03    147.92844    36.902596 
167892000    278.19904    388.90526    342.21528   -146218.51    146241.69    46.689984    36.901071 
167896000    279.89039    585.53861    239.95734   -146245.74    146270.52    345.58126    36.903803 
167900000       296.98    263.45365    312.25335    -146262.6    146277.85   -48.799697     36.90318 
167904000    269.12067    244.81899    319.91324   -146278.23    146309.99   -75.094255    36.900926 
167908000    307.26649    331.79396    329.34871   -146317.76    146323.54    2.4452467    36.897243 
167912000    271.23348    320.27865    512.96005   -146315.29    146352.88    -192.6814    36.893608 
167916000      297.766    228.64893    280.32428   -146341.58    146359.09   -51.675348    36.894689 
167920000    280.05937    137.99257    496.58583   -146351.67    146380.88   -358.59326    36.894772 
167924000    279.59244    312.76566    153.25402   -146363.47    146401.25    159.51164     36.89243 
167928000    263.08123    411.95781     344.8092   -146388.42    146415.79     67.14861    36.890711 
167932000    293.68274     216.8298    223.86026   -146385.91    146411.77   -7.0304592    36.885212 
167936000    290.99706    427.65889    451.35323   -146431.32    146449.63    -23.69434    36.888339 
167940000     264.3477    320.26411    292.07335   -146433.47    146470.74    28.190764    36.887027 
167944000    269.81856     300.8108     300.9784   -146491.72    146498.03  -0.16760431    36.882082 
167948000    295.76327    374.80925    257.75348   -146526.01    146552.98    117.05576    36.881618 
167952000    281.55622    352.30114    312.61126   -146525.27    146563.91    39.689879    36.886425 
167956000    323.17641     264.9799    414.57252   -146558.96    146557.24   -149.59261    36.886359 
167960000    295.77385    298.09787    318.61758   -146563.33    146590.03   -20.519708    36.886014 
167964000    283.34814    640.90635    190.06405      -146576    146616.49    450.84229    36.887284 
167968000    306.86539    450.11696    174.99782   -146617.24     146627.3    275.11914    36.886359 
167972000    308.36165    420.48164    447.02782   -146613.76    146634.15    -26.54618    36.892803 
167976000    283.13841    325.25309    399.30417   -146621.29    146641.23   -74.051079       36.899 
167980000    255.87373    342.47509    207.30965   -146624.34    146657.62    135.16544    36.895979 
167984000    285.38663    404.82875    551.52387   -146623.54    146647.66   -146.69512    36.895968 
167988000       270.46    351.82083    350.66736   -146626.29    146664.52    1.1534712    36.893987 
167992000    296.00362    446.17243     300.9648   -146635.66    146671.68    145.20763    36.898492 
167996000    280.73956    308.30347     284.4764   -146658.13    146685.55    23.827066    36.895842 
168000000    302.20193     245.5056    274.92078   -146688.07     146698.1   -29.415174    36.896981 
168004000    267.15864    309.79564    367.82463   -146699.98    146721.88   -58.028989    36.898442 
168008000    267.38646    325.70006    242.50189   -146724.62    146750.29    83.198169    36.898446 
168012000    303.52974    275.31138    293.49788   -146789.84    146784.32   -18.186498    36.894889 
168016000    276.74852    191.10183    302.09318   -146796.14    146827.14   -110.99135    36.897555 
168020000    279.87238    418.66827    273.06665   -146794.08    146829.36    145.60162    36.893781 
168024000    266.35446    295.03714    316.37283   -146812.86    146848.04   -21.335692    36.891603 
168028000    272.69447    432.92145    221.67983   -146806.74    146842.77    211.24162    36.891961 
168032000    269.45675    363.48719    190.35636   -146805.56    146845.36    173.13083      36.8939 
168036000    286.97968    308.66126    163.66729    -146805.4    146842.99    144.99397      36.8961 
168040000    272.63773    302.38789    327.61488   -146811.09    146836.52   -25.226987    36.896393 
168044000    263.82261    254.22735    495.03434   -146801.88    146837.26   -240.80699    36.894424 
168048000    283.90051    275.71174    230.31983   -146842.41    146861.71    45.391908    36.893207 
168052000    281.38518     480.1101    267.75881   -146862.55    146880.25    212.35129    36.891017 
168056000    278.31847    354.41483    371.93459   -146890.86    146910.15   -17.519761    36.890822 
168060000    292.24667    298.17015    339.09045   -146917.92    146953.33   -40.920304    36.886395 
Loop time of 5353.81 on 1 procs for 32000000 steps with 196 atoms

Performance: 645.521 ns/day, 0.037 hours/ns, 5977.049 timesteps/s
99.9% CPU use with 1 MPI tasks x no OpenMP threads

MPI task timing breakdown:
Section |  min time  |  avg time  |  max time  |%varavg| %total
---------------------------------------------------------------
Pair    | 1584.5     | 1584.5     | 1584.5     |   0.0 | 29.59
Bond    | 2691.5     | 2691.5     | 2691.5     |   0.0 | 50.27
Neigh   | 46.606     | 46.606     | 46.606     |   0.0 |  0.87
Comm    | 9.3966     | 9.3966     | 9.3966     |   0.0 |  0.18
Output  | 3.9571     | 3.9571     | 3.9571     |   0.0 |  0.07
Modify  | 988.16     | 988.16     | 988.16     |   0.0 | 18.46
Other   |            | 29.73      |            |       |  0.56

Nlocal:    196 ave 196 max 196 min
Histogram: 1 0 0 0 0 0 0 0 0 0
Nghost:    0 ave 0 max 0 min
Histogram: 1 0 0 0 0 0 0 0 0 0
Neighs:    3850 ave 3850 max 3850 min
Histogram: 1 0 0 0 0 0 0 0 0 0

Total # of neighbors = 3850
Ave neighs/atom = 19.6429
Ave special neighs/atom = 5.87755
Neighbor list builds = 219151
Dangerous builds = 0

write_restart FINALCONFIG

Total wall time: 1:33:42
