LAMMPS UA chain data file
 
         196  atoms
         194  bonds
         192  angles
         190  dihedrals
           0  impropers
 
           3  atom types
           1  bond types
           1  angle types
           1  dihedral types
           0  improper types
 
    -400.000000     400.000000 xlo xhi
    -400.000000     400.000000 ylo yhi
    -0.050000      124.000000 zlo zhi
 
Masses
 
  1   14.00
  2   14.00
  3   14.00
 
Atoms

 1 1 3 -2.91319 -1.20506 -0.0123858 0 0 0
 2 1 3 -3.2854 -1.03944 1.48904 0 0 0
 3 1 3 -2.31794 -0.440683 2.558 0 0 0
 4 1 1 -2.62151 -0.499336 4.12565 0 0 0
 5 1 1 -1.96675 0.479707 5.19903 0 0 0
 6 1 1 -2.20424 0.308755 6.74672 0 0 0
 7 1 1 -1.19196 1.03594 7.74475 0 0 0
 8 1 1 -1.41214 0.910194 9.29776 0 0 0
 9 1 1 -0.252449 1.2585 10.2587 0 0 0
 10 1 1 -0.443642 1.04359 11.7823 0 0 0
 11 1 1 0.69326 0.986931 12.9032 0 0 0
 12 1 1 0.402182 0.669823 14.4101 0 0 0
 13 1 1 1.34849 0.556438 15.6753 0 0 0
 14 1 1 1.05183 -0.582856 16.7627 0 0 0
 15 1 1 1.26458 -0.608245 18.2839 0 0 0
 16 1 1 0.745497 -1.78572 19.225 0 0 0
 17 1 1 1.07405 -1.72051 20.7982 0 0 0
 18 1 1 0.325309 -2.68974 21.8485 0 0 0
 19 1 1 0.453055 -2.59916 23.3969 0 0 0
 20 1 1 -0.713191 -2.83696 24.4299 0 0 0
 21 1 1 -0.422877 -2.73031 25.9898 0 0 0
 22 1 1 -1.6145 -2.24404 26.9349 0 0 0
 23 1 1 -1.44393 -2.32124 28.5283 0 0 0
 24 1 1 -2.28258 -1.52117 29.543 0 0 0
 25 1 1 -2.05724 -1.76228 31.0336 0 0 0
 26 1 1 -2.71008 -0.722551 32.009 0 0 0
 27 1 1 -2.11937 -0.751951 33.4924 0 0 0
 28 1 1 -2.46824 0.311996 34.6385 0 0 0
 29 1 1 -1.77222 0.129466 36.0443 0 0 0
 30 1 1 -1.89711 1.16092 37.1286 0 0 0
 31 1 1 -1.19072 0.79866 38.4968 0 0 0
 32 1 1 -1.02794 1.61826 39.8767 0 0 0
 33 1 1 -0.160364 0.875982 41.0013 0 0 0
 34 1 1 -0.136456 1.42481 42.4682 0 0 0
 35 1 1 0.705316 0.555218 43.5124 0 0 0
 36 1 1 0.842353 0.673252 45.121 0 0 0
 37 1 1 1.2178 -0.607991 45.935 0 0 0
 38 1 1 1.41064 -0.402592 47.4485 0 0 0
 39 1 1 1.31012 -1.56555 48.5076 0 0 0
 40 1 1 1.37111 -1.20728 50.0201 0 0 0
 41 1 1 0.69347 -2.2812 51.0038 0 0 0
 42 1 1 0.73792 -2.0674 52.591 0 0 0
 43 1 1 -0.31528 -2.59893 53.6203 0 0 0
 44 1 1 0.0881598 -2.47862 55.154 0 0 0
 45 1 1 -1.07502 -2.10452 56.1435 0 0 0
 46 1 1 -0.807215 -2.0178 57.6936 0 0 0
 47 1 1 -1.79312 -1.30471 58.6825 0 0 0
 48 1 1 -1.35149 -1.03372 60.1947 0 0 0
 49 1 1 -2.29469 -0.496074 61.4107 0 0 0
 50 1 1 -1.50228 0.0792099 62.654 0 0 0
 51 1 1 -2.22237 0.547623 63.9805 0 0 0
 52 1 1 -1.20498 1.09219 65.0169 0 0 0
 53 1 1 -1.44611 1.12869 66.5851 0 0 0
 54 1 1 -0.334183 1.57509 67.6414 0 0 0
 55 1 1 -0.366935 1.47029 69.2108 0 0 0
 56 1 1 0.813526 1.76337 70.1864 0 0 0
 57 1 1 0.654595 1.1563 71.6778 0 0 0
 58 1 1 1.74862 1.02583 72.8016 0 0 0
 59 1 1 1.47279 0.0705849 74.0317 0 0 0
 60 1 1 2.10446 0.180329 75.4941 0 0 0
 61 1 1 1.81819 -0.884462 76.6324 0 0 0
 62 1 1 2.27959 -0.768744 78.1222 0 0 0
 63 1 1 1.51134 -1.66763 79.1939 0 0 0
 64 1 1 1.8228 -1.61933 80.7487 0 0 0
 65 1 1 0.849206 -2.24511 81.8202 0 0 0
 66 1 1 0.943403 -2.02972 83.357 0 0 0
 67 1 1 -0.270496 -2.32731 84.3228 0 0 0
 68 1 1 -0.0609493 -2.378 85.9179 0 0 0
 69 1 1 -1.25435 -1.88642 86.8216 0 0 0
 70 1 1 -1.01098 -1.94381 88.4145 0 0 0
 71 1 1 -1.72311 -0.904197 89.3416 0 0 0
 72 1 1 -1.94657 -1.08011 90.8918 0 0 0
 73 1 1 -1.86557 0.0933215 91.9046 0 0 0
 74 1 1 -1.92755 -0.0785344 93.4725 0 0 0
 75 1 1 -1.32392 1.06626 94.4211 0 0 0
 76 1 1 -1.40907 0.847138 95.9823 0 0 0
 77 1 1 -0.370547 1.60923 96.8781 0 0 0
 78 1 1 -0.495525 1.81265 98.4534 0 0 0
 79 1 1 0.77603 1.6111 99.4035 0 0 0
 80 1 1 0.743425 1.75472 100.961 0 0 0
 81 1 1 1.55321 0.768082 101.93 0 0 0
 82 1 1 1.31145 0.90873 103.428 0 0 0
 83 1 1 1.78727 -0.259911 104.412 0 0 0
 84 1 1 1.77705 -0.0627836 105.964 0 0 0
 85 1 1 1.8031 -1.26949 106.981 0 0 0
 86 1 1 2.17324 -1.03623 108.503 0 0 0
 87 1 1 1.5661 -2.07026 109.482 0 0 0
 88 1 1 1.79134 -1.84966 111.003 0 0 0
 89 1 1 0.649529 -2.05688 112.035 0 0 0
 90 1 1 0.887362 -1.85405 113.578 0 0 0
 91 1 1 -0.176418 -1.79839 114.732 0 0 0
 92 1 1 0.130619 -1.55733 116.278 0 0 0
 93 1 1 -0.849122 -0.853231 117.258 0 0 0
 94 1 1 -0.472823 -0.461161 118.71 0 0 0
 95 1 1 -1.60088 -0.00127353 119.76 0 0 0
 96 1 2 -1.4379 0.4302 121.245 0 0 0
 97 1 2 -1.3844 -0.678 122.297 0 0 0
 98 1 2 -1.7147 -0.2091 123.87 0 0 0
 99 2 3 1.59179 0.722863 -0.0123858 0 0 0
 100 2 3 1.8812 0.427271 1.48158 0 0 0
 101 2 3 1.23602 -0.78608 2.34466 0 0 0
 102 2 1 1.49322 -0.791098 3.9238 0 0 0
 103 2 1 0.926218 -1.95465 4.86943 0 0 0
 104 2 1 1.0332 -1.79146 6.46729 0 0 0
 105 2 1 0.15271 -2.56849 7.49975 0 0 0
 106 2 1 0.378185 -2.25909 9.02959 0 0 0
 107 2 1 -0.700386 -2.64014 10.0566 0 0 0
 108 2 1 -0.514807 -2.53208 11.6128 0 0 0
 109 2 1 -1.76269 -2.19043 12.5348 0 0 0
 110 2 1 -1.50457 -2.19985 14.0648 0 0 0
 111 2 1 -2.34625 -1.17013 14.9543 0 0 0
 112 2 1 -2.27308 -1.3946 16.5475 0 0 0
 113 2 1 -2.47184 -0.269832 17.6058 0 0 0
 114 2 1 -2.47565 -0.565475 19.2291 0 0 0
 115 2 1 -2.42345 0.60758 20.3013 0 0 0
 116 2 1 -1.79616 0.217793 21.6942 0 0 0
 117 2 1 -1.78198 1.03875 23.0265 0 0 0
 118 2 1 -0.713366 0.764224 24.1451 0 0 0
 119 2 1 -0.902036 1.25765 25.6348 0 0 0
 120 2 1 0.172443 0.738302 26.7085 0 0 0
 121 2 1 0.270064 1.23145 28.1853 0 0 0
 122 2 1 0.92042 0.237745 29.2568 0 0 0
 123 2 1 1.27086 0.65998 30.7278 0 0 0
 124 2 1 1.59976 -0.489007 31.7485 0 0 0
 125 2 1 1.45904 -0.232046 33.3017 0 0 0
 126 2 1 1.44456 -1.42495 34.3231 0 0 0
 127 2 1 1.62422 -1.22901 35.8613 0 0 0
 128 2 1 1.04422 -2.27615 36.9725 0 0 0
 129 2 1 0.95488 -1.88278 38.512 0 0 0
 130 2 1 -0.178647 -2.61187 39.2507 0 0 0
 131 2 1 -0.142918 -2.57422 40.8389 0 0 0
 132 2 1 -1.41804 -2.24296 41.7722 0 0 0
 133 2 1 -1.2797 -2.63378 43.3267 0 0 0
 134 2 1 -2.00722 -1.71848 44.4031 0 0 0
 135 2 1 -1.93495 -1.98488 45.9861 0 0 0
 136 2 1 -2.35422 -0.89846 47.0505 0 0 0
 137 2 1 -2.32917 -1.09419 48.6048 0 0 0
 138 2 1 -1.99652 0.226913 49.4527 0 0 0
 139 2 1 -1.94199 0.230562 51.07 0 0 0
 140 2 1 -1.06151 1.10605 51.9268 0 0 0
 141 2 1 -1.30678 1.02173 53.4825 0 0 0
 142 2 1 0.000715979 1.29454 54.408 0 0 0
 143 2 1 -0.094414 1.40245 55.9933 0 0 0
 144 2 1 1.09039 1.04817 56.9929 0 0 0
 145 2 1 0.869565 1.17005 58.5234 0 0 0
 146 2 1 1.82339 0.426863 59.5646 0 0 0
 147 2 1 1.59156 0.498352 61.1024 0 0 0
 148 2 1 2.03982 -0.64847 62.1002 0 0 0
 149 2 1 1.67596 -0.542105 63.574 0 0 0
 150 2 1 1.7935 -1.70442 64.6211 0 0 0
 151 2 1 0.905395 -1.49673 65.8961 0 0 0
 152 2 1 0.94041 -2.30275 67.2723 0 0 0
 153 2 1 -0.0594853 -1.85002 68.4587 0 0 0
 154 2 1 0.0537659 -2.37496 69.9472 0 0 0
 155 2 1 -0.846157 -1.68686 71.0091 0 0 0
 156 2 1 -0.900357 -2.03975 72.5558 0 0 0
 157 2 1 -1.6995 -1.09041 73.5546 0 0 0
 158 2 1 -1.75746 -1.29061 75.1047 0 0 0
 159 2 1 -1.75386 -0.0976717 76.1122 0 0 0
 160 2 1 -1.788 -0.280382 77.7274 0 0 0
 161 2 1 -1.2318 0.860555 78.6529 0 0 0
 162 2 1 -1.26469 0.595847 80.2111 0 0 0
 163 2 1 -0.438715 1.51117 81.193 0 0 0
 164 2 1 -0.600203 1.16249 82.7623 0 0 0
 165 2 1 0.503506 1.4546 83.8804 0 0 0
 166 2 1 0.226188 1.28882 85.4338 0 0 0
 167 2 1 1.43364 1.09016 86.4669 0 0 0
 168 2 1 1.03588 0.77512 87.952 0 0 0
 169 2 1 2.00792 0.533529 89.1426 0 0 0
 170 2 1 1.38286 0.0783099 90.4983 0 0 0
 171 2 1 2.24974 -0.395181 91.6802 0 0 0
 172 2 1 1.4905 -0.890273 92.9818 0 0 0
 173 2 1 1.92727 -0.962349 94.5236 0 0 0
 174 2 1 0.890845 -1.55345 95.542 0 0 0
 175 2 1 1.06784 -1.42705 97.131 0 0 0
 176 2 1 -0.101265 -1.73115 98.1414 0 0 0
 177 2 1 0.0976336 -1.77357 99.6371 0 0 0
 178 2 1 -1.14635 -1.38723 100.554 0 0 0
 179 2 1 -0.988265 -1.50378 102.152 0 0 0
 180 2 1 -1.81995 -0.534377 103.152 0 0 0
 181 2 1 -1.51651 -0.702109 104.72 0 0 0
 182 2 1 -1.847 0.410421 105.773 0 0 0
 183 2 1 -1.54559 0.107488 107.324 0 0 0
 184 2 1 -1.16444 1.23049 108.358 0 0 0
 185 2 1 -0.507886 0.848741 109.764 0 0 0
 186 2 1 0.062653 1.87679 110.84 0 0 0
 187 2 1 0.844906 1.39105 112.079 0 0 0
 188 2 1 1.19933 2.19018 113.368 0 0 0
 189 2 1 2.0444 1.39134 114.458 0 0 0
 190 2 1 2.1258 1.80186 115.952 0 0 0
 191 2 1 2.54562 0.800665 117.089 0 0 0
 192 2 1 2.71252 1.23281 118.62 0 0 0
 193 2 1 3.03681 0.193546 119.73 0 0 0
 194 2 2 3.4621 0.4302 121.245 0 0 0
 195 2 2 3.5156 -0.678 122.297 0 0 0
 196 2 2 3.1853 -0.2091 123.87 0 0 0

Bonds
 
       1         1         1       2
       2         1         2       3
       3         1         3       4
       4         1         4       5
       5         1         5       6
       6         1         6       7
       7         1         7       8
       8         1         8       9
       9         1         9      10
      10         1        10      11
      11         1        11      12
      12         1        12      13
      13         1        13      14
      14         1        14      15
      15         1        15      16
      16         1        16      17
      17         1        17      18
      18         1        18      19
      19         1        19      20
      20         1        20      21
      21         1        21      22
      22         1        22      23
      23         1        23      24
      24         1        24      25
      25         1        25      26
      26         1        26      27
      27         1        27      28
      28         1        28      29
      29         1        29      30
      30         1        30      31
      31         1        31      32
      32         1        32      33
      33         1        33      34
      34         1        34      35
      35         1        35      36
      36         1        36      37
      37         1        37      38
      38         1        38      39
      39         1        39      40
      40         1        40      41
      41         1        41      42
      42         1        42      43
      43         1        43      44
      44         1        44      45
      45         1        45      46
      46         1        46      47
      47         1        47      48
      48         1        48      49
      49         1        49      50
      50         1        50      51
      51         1        51      52
      52         1        52      53
      53         1        53      54
      54         1        54      55
      55         1        55      56
      56         1        56      57
      57         1        57      58
      58         1        58      59
      59         1        59      60
      60         1        60      61
      61         1        61      62
      62         1        62      63
      63         1        63      64
      64         1        64      65
      65         1        65      66
      66         1        66      67
      67         1        67      68
      68         1        68      69
      69         1        69      70
      70         1        70      71
      71         1        71      72
      72         1        72      73
      73         1        73      74
      74         1        74      75
      75         1        75      76
      76         1        76      77
      77         1        77      78
      78         1        78      79
      79         1        79      80
      80         1        80      81
      81         1        81      82
      82         1        82      83
      83         1        83      84
      84         1        84      85
      85         1        85      86
      86         1        86      87
      87         1        87      88
      88         1        88      89
      89         1        89      90
      90         1        90      91
      91         1        91      92
      92         1        92      93
      93         1        93      94
      94         1        94      95
      95         1        95      96
      96         1        96      97
      97         1        97      98
      98         1        99     100
      99         1       100     101
     100         1       101     102
     101         1       102     103
     102         1       103     104
     103         1       104     105
     104         1       105     106
     105         1       106     107
     106         1       107     108
     107         1       108     109
     108         1       109     110
     109         1       110     111
     110         1       111     112
     111         1       112     113
     112         1       113     114
     113         1       114     115
     114         1       115     116
     115         1       116     117
     116         1       117     118
     117         1       118     119
     118         1       119     120
     119         1       120     121
     120         1       121     122
     121         1       122     123
     122         1       123     124
     123         1       124     125
     124         1       125     126
     125         1       126     127
     126         1       127     128
     127         1       128     129
     128         1       129     130
     129         1       130     131
     130         1       131     132
     131         1       132     133
     132         1       133     134
     133         1       134     135
     134         1       135     136
     135         1       136     137
     136         1       137     138
     137         1       138     139
     138         1       139     140
     139         1       140     141
     140         1       141     142
     141         1       142     143
     142         1       143     144
     143         1       144     145
     144         1       145     146
     145         1       146     147
     146         1       147     148
     147         1       148     149
     148         1       149     150
     149         1       150     151
     150         1       151     152
     151         1       152     153
     152         1       153     154
     153         1       154     155
     154         1       155     156
     155         1       156     157
     156         1       157     158
     157         1       158     159
     158         1       159     160
     159         1       160     161
     160         1       161     162
     161         1       162     163
     162         1       163     164
     163         1       164     165
     164         1       165     166
     165         1       166     167
     166         1       167     168
     167         1       168     169
     168         1       169     170
     169         1       170     171
     170         1       171     172
     171         1       172     173
     172         1       173     174
     173         1       174     175
     174         1       175     176
     175         1       176     177
     176         1       177     178
     177         1       178     179
     178         1       179     180
     179         1       180     181
     180         1       181     182
     181         1       182     183
     182         1       183     184
     183         1       184     185
     184         1       185     186
     185         1       186     187
     186         1       187     188
     187         1       188     189
     188         1       189     190
     189         1       190     191
     190         1       191     192
     191         1       192     193
     192         1       193     194
     193         1       194     195
     194         1       195     196
 
Angles
 
           1           1           1           2           3
           2           1           2           3           4
           3           1           3           4           5
           4           1           4           5           6
           5           1           5           6           7
           6           1           6           7           8
           7           1           7           8           9
           8           1           8           9          10
           9           1           9          10          11
          10           1          10          11          12
          11           1          11          12          13
          12           1          12          13          14
          13           1          13          14          15
          14           1          14          15          16
          15           1          15          16          17
          16           1          16          17          18
          17           1          17          18          19
          18           1          18          19          20
          19           1          19          20          21
          20           1          20          21          22
          21           1          21          22          23
          22           1          22          23          24
          23           1          23          24          25
          24           1          24          25          26
          25           1          25          26          27
          26           1          26          27          28
          27           1          27          28          29
          28           1          28          29          30
          29           1          29          30          31
          30           1          30          31          32
          31           1          31          32          33
          32           1          32          33          34
          33           1          33          34          35
          34           1          34          35          36
          35           1          35          36          37
          36           1          36          37          38
          37           1          37          38          39
          38           1          38          39          40
          39           1          39          40          41
          40           1          40          41          42
          41           1          41          42          43
          42           1          42          43          44
          43           1          43          44          45
          44           1          44          45          46
          45           1          45          46          47
          46           1          46          47          48
          47           1          47          48          49
          48           1          48          49          50
          49           1          49          50          51
          50           1          50          51          52
          51           1          51          52          53
          52           1          52          53          54
          53           1          53          54          55
          54           1          54          55          56
          55           1          55          56          57
          56           1          56          57          58
          57           1          57          58          59
          58           1          58          59          60
          59           1          59          60          61
          60           1          60          61          62
          61           1          61          62          63
          62           1          62          63          64
          63           1          63          64          65
          64           1          64          65          66
          65           1          65          66          67
          66           1          66          67          68
          67           1          67          68          69
          68           1          68          69          70
          69           1          69          70          71
          70           1          70          71          72
          71           1          71          72          73
          72           1          72          73          74
          73           1          73          74          75
          74           1          74          75          76
          75           1          75          76          77
          76           1          76          77          78
          77           1          77          78          79
          78           1          78          79          80
          79           1          79          80          81
          80           1          80          81          82
          81           1          81          82          83
          82           1          82          83          84
          83           1          83          84          85
          84           1          84          85          86
          85           1          85          86          87
          86           1          86          87          88
          87           1          87          88          89
          88           1          88          89          90
          89           1          89          90          91
          90           1          90          91          92
          91           1          91          92          93
          92           1          92          93          94
          93           1          93          94          95
          94           1          94          95          96
          95           1          95          96          97
          96           1          96          97          98
          97           1          99         100         101
          98           1         100         101         102
          99           1         101         102         103
         100           1         102         103         104
         101           1         103         104         105
         102           1         104         105         106
         103           1         105         106         107
         104           1         106         107         108
         105           1         107         108         109
         106           1         108         109         110
         107           1         109         110         111
         108           1         110         111         112
         109           1         111         112         113
         110           1         112         113         114
         111           1         113         114         115
         112           1         114         115         116
         113           1         115         116         117
         114           1         116         117         118
         115           1         117         118         119
         116           1         118         119         120
         117           1         119         120         121
         118           1         120         121         122
         119           1         121         122         123
         120           1         122         123         124
         121           1         123         124         125
         122           1         124         125         126
         123           1         125         126         127
         124           1         126         127         128
         125           1         127         128         129
         126           1         128         129         130
         127           1         129         130         131
         128           1         130         131         132
         129           1         131         132         133
         130           1         132         133         134
         131           1         133         134         135
         132           1         134         135         136
         133           1         135         136         137
         134           1         136         137         138
         135           1         137         138         139
         136           1         138         139         140
         137           1         139         140         141
         138           1         140         141         142
         139           1         141         142         143
         140           1         142         143         144
         141           1         143         144         145
         142           1         144         145         146
         143           1         145         146         147
         144           1         146         147         148
         145           1         147         148         149
         146           1         148         149         150
         147           1         149         150         151
         148           1         150         151         152
         149           1         151         152         153
         150           1         152         153         154
         151           1         153         154         155
         152           1         154         155         156
         153           1         155         156         157
         154           1         156         157         158
         155           1         157         158         159
         156           1         158         159         160
         157           1         159         160         161
         158           1         160         161         162
         159           1         161         162         163
         160           1         162         163         164
         161           1         163         164         165
         162           1         164         165         166
         163           1         165         166         167
         164           1         166         167         168
         165           1         167         168         169
         166           1         168         169         170
         167           1         169         170         171
         168           1         170         171         172
         169           1         171         172         173
         170           1         172         173         174
         171           1         173         174         175
         172           1         174         175         176
         173           1         175         176         177
         174           1         176         177         178
         175           1         177         178         179
         176           1         178         179         180
         177           1         179         180         181
         178           1         180         181         182
         179           1         181         182         183
         180           1         182         183         184
         181           1         183         184         185
         182           1         184         185         186
         183           1         185         186         187
         184           1         186         187         188
         185           1         187         188         189
         186           1         188         189         190
         187           1         189         190         191
         188           1         190         191         192
         189           1         191         192         193
         190           1         192         193         194
         191           1         193         194         195
         192           1         194         195         196
 
Dihedrals
 
           1           1           1           2           3           4
           2           1           2           3           4           5
           3           1           3           4           5           6
           4           1           4           5           6           7
           5           1           5           6           7           8
           6           1           6           7           8           9
           7           1           7           8           9          10
           8           1           8           9          10          11
           9           1           9          10          11          12
          10           1          10          11          12          13
          11           1          11          12          13          14
          12           1          12          13          14          15
          13           1          13          14          15          16
          14           1          14          15          16          17
          15           1          15          16          17          18
          16           1          16          17          18          19
          17           1          17          18          19          20
          18           1          18          19          20          21
          19           1          19          20          21          22
          20           1          20          21          22          23
          21           1          21          22          23          24
          22           1          22          23          24          25
          23           1          23          24          25          26
          24           1          24          25          26          27
          25           1          25          26          27          28
          26           1          26          27          28          29
          27           1          27          28          29          30
          28           1          28          29          30          31
          29           1          29          30          31          32
          30           1          30          31          32          33
          31           1          31          32          33          34
          32           1          32          33          34          35
          33           1          33          34          35          36
          34           1          34          35          36          37
          35           1          35          36          37          38
          36           1          36          37          38          39
          37           1          37          38          39          40
          38           1          38          39          40          41