LAMMPS UA chain data file
 
         196  atoms
         194  bonds
         192  angles
         190  dihedrals
           0  impropers
 
           3  atom types
           1  bond types
           1  angle types
           1  dihedral types
           0  improper types
 
    -400.000000     400.000000 xlo xhi
    -400.000000     400.000000 ylo yhi
    0.000000      124.000000 zlo zhi
 
Masses
 
  1   14.00
  2   14.00
  3   14.00
 
Atoms
 
         1       1       3   -3.1107   -0.2411    0.0000   0   0   0
         2       1       3   -3.6957   -0.3991    1.4606   0   0   0
         3       1       3   -2.9408   -1.2484    2.4936   0   0   0
         4       1       1   -3.5834   -1.4383    3.9105   0   0   0
         5       1       1   -2.7937   -2.1944    5.0078   0   0   0
         6       1       1   -3.4461   -1.9917    6.3603   0   0   0
         7       1       1   -2.9801   -2.7843    7.6280   0   0   0
         8       1       1   -3.7364   -2.4067    8.8727   0   0   0
         9       1       1   -3.1370   -3.0843   10.1189   0   0   0
        10       1       1   -3.4826   -2.3616   11.4176   0   0   0
        11       1       1   -3.0202   -3.2739   12.5376   0   0   0
        12       1       1   -3.4831   -2.6932   13.9478   0   0   0
        13       1       1   -3.2937   -3.4888   15.2736   0   0   0
        14       1       1   -3.7644   -2.5528   16.3944   0   0   0
        15       1       1   -3.9419   -3.3281   17.7017   0   0   0
        16       1       1   -3.7554   -2.4562   18.9009   0   0   0
        17       1       1   -3.7003   -3.3014   20.1831   0   0   0
        18       1       1   -3.4498   -2.3508   21.4173   0   0   0
        19       1       1   -3.6982   -3.1723   22.7224   0   0   0
        20       1       1   -3.8034   -2.2933   23.9827   0   0   0
        21       1       1   -3.6595   -3.0845   25.2787   0   0   0
        22       1       1   -3.5191   -2.1683   26.5184   0   0   0
        23       1       1   -3.3444   -2.8607   27.8225   0   0   0
        24       1       1   -3.5421   -2.0215   29.0893   0   0   0
        25       1       1   -3.3166   -2.7436   30.4099   0   0   0
        26       1       1   -3.5813   -1.7217   31.5411   0   0   0
        27       1       1   -3.1970   -2.3710   32.8866   0   0   0
        28       1       1   -3.4103   -1.5071   34.1482   0   0   0
        29       1       1   -2.6022   -1.8150   35.3384   0   0   0
        30       1       1   -3.2295   -1.2271   36.6118   0   0   0
        31       1       1   -2.7260   -1.9614   37.9204   0   0   0
        32       1       1   -3.2461   -1.2695   39.2394   0   0   0
        33       1       1   -2.8861   -1.9354   40.5204   0   0   0
        34       1       1   -3.2105   -0.9516   41.6760   0   0   0
        35       1       1   -2.7795   -1.6020   42.9735   0   0   0
        36       1       1   -3.1141   -0.6745   44.2127   0   0   0
        37       1       1   -2.8555   -1.3720   45.5528   0   0   0
        38       1       1   -3.1164   -0.4659   46.7707   0   0   0
        39       1       1   -2.7120   -1.1723   48.1326   0   0   0
        40       1       1   -2.8287   -0.2915   49.3181   0   0   0
        41       1       1   -2.4255   -0.9499   50.6569   0   0   0
        42       1       1   -2.4308   -0.0004   51.8369   0   0   0
        43       1       1   -2.3701   -0.6493   53.2275   0   0   0
        44       1       1   -2.3762    0.3961   54.3776   0   0   0
        45       1       1   -2.4078   -0.1028   55.8230   0   0   0
        46       1       1   -2.2337    0.9568   56.9112   0   0   0
        47       1       1   -2.2909    0.2805   58.2365   0   0   0
        48       1       1   -2.3888    1.1418   59.5416   0   0   0
        49       1       1   -2.3793    0.3601   60.8978   0   0   0
        50       1       1   -2.3551    1.2353   62.1848   0   0   0
        51       1       1   -2.1329    0.5557   63.5412   0   0   0
        52       1       1   -2.7816    1.4096   64.6407   0   0   0
        53       1       1   -2.5169    0.8203   66.0257   0   0   0
        54       1       1   -2.7797    1.7316   67.2019   0   0   0
        55       1       1   -2.5984    1.0501   68.5805   0   0   0
        56       1       1   -2.9307    1.9957   69.6670   0   0   0
        57       1       1   -2.7281    1.2847   70.9980   0   0   0
        58       1       1   -2.5745    2.1791   72.2430   0   0   0
        59       1       1   -2.6587    1.4639   73.6456   0   0   0
        60       1       1   -2.5633    2.3050   74.9496   0   0   0
        61       1       1   -2.3837    1.6007   76.2935   0   0   0
        62       1       1   -2.2597    2.4365   77.5508   0   0   0
        63       1       1   -1.9347    1.5483   78.8337   0   0   0
        64       1       1   -1.7145    2.4822   80.0654   0   0   0
        65       1       1   -1.8736    1.6971   81.4229   0   0   0
        66       1       1   -2.1533    2.5485   82.6413   0   0   0
        67       1       1   -1.6059    1.9470   83.9230   0   0   0
        68       1       1   -2.1318    2.7004   85.1968   0   0   0
        69       1       1   -1.8962    1.8188   86.4369   0   0   0
        70       1       1   -2.0028    2.5110   87.8237   0   0   0
        71       1       1   -1.5026    1.7063   89.0221   0   0   0
        72       1       1   -1.8064    2.4846   90.2630   0   0   0
        73       1       1   -1.2978    1.9143   91.6465   0   0   0
        74       1       1   -1.6448    2.6936   92.8937   0   0   0
        75       1       1   -1.2636    2.0574   94.2193   0   0   0
        76       1       1   -1.8507    2.7836   95.4835   0   0   0
        77       1       1   -1.3465    2.0876   96.7216   0   0   0
        78       1       1   -1.7172    2.7547   98.0995   0   0   0
        79       1       1   -1.2025    1.9597   99.3564   0   0   0
        80       1       1   -1.5888    2.6874  100.6920   0   0   0
        81       1       1   -1.1938    1.7847  101.8430   0   0   0
        82       1       1   -1.1660    2.5528  103.2530   0   0   0
        83       1       1   -0.9536    1.6200  104.4870   0   0   0
        84       1       1   -1.2166    2.3443  105.8470   0   0   0
        85       1       1   -1.1703    1.3938  107.0850   0   0   0
        86       1       1   -1.3090    2.1556  108.4350   0   0   0
        87       1       1   -1.1512    1.1632  109.6340   0   0   0
        88       1       1   -1.2393    1.8049  111.0370   0   0   0
        89       1       1   -1.1657    0.7499  112.1670   0   0   0
        90       1       1   -1.3333    1.3867  113.5820   0   0   0
        91       1       1   -1.1374    0.3838  114.6950   0   0   0
        92       1       1   -1.3349    0.9981  116.0840   0   0   0
        93       1       1   -1.3864    0.0059  117.2880   0   0   0
        94       1       1   -1.4589    0.7242  118.6440   0   0   0
        95       1       1   -1.5530   -0.2178  119.8390   0   0   0
        96       1       2   -1.4379    0.4302  121.2330   0   0   0
        97       1       2   -1.3844   -0.6780  122.2850   0   0   0
        98       1       2   -1.7147   -0.2091  123.8580   0   0   0
        99       2       3    1.7893   -0.2411    0.0000   0   0   0
       100       2       3    1.2043   -0.3991    1.4606   0   0   0
       101       2       3    1.9592   -1.2484    2.4936   0   0   0
       102       2       1    1.3166   -1.4383    3.9105   0   0   0
       103       2       1    2.1063   -2.1944    5.0078   0   0   0
       104       2       1    1.4539   -1.9917    6.3603   0   0   0
       105       2       1    1.9199   -2.7843    7.6280   0   0   0
       106       2       1    1.1636   -2.4067    8.8727   0   0   0
       107       2       1    1.7630   -3.0843   10.1189   0   0   0
       108       2       1    1.4174   -2.3616   11.4176   0   0   0
       109       2       1    1.8798   -3.2739   12.5376   0   0   0
       110       2       1    1.4169   -2.6932   13.9478   0   0   0
       111       2       1    1.6063   -3.4888   15.2736   0   0   0
       112       2       1    1.1356   -2.5528   16.3944   0   0   0
       113       2       1    0.9581   -3.3281   17.7017   0   0   0
       114       2       1    1.1446   -2.4562   18.9009   0   0   0
       115       2       1    1.1997   -3.3014   20.1831   0   0   0
       116       2       1    1.4502   -2.3508   21.4173   0   0   0
       117       2       1    1.2018   -3.1723   22.7224   0   0   0
       118       2       1    1.0966   -2.2933   23.9827   0   0   0
       119       2       1    1.2405   -3.0845   25.2787   0   0   0
       120       2       1    1.3809   -2.1683   26.5184   0   0   0
       121       2       1    1.5556   -2.8607   27.8225   0   0   0
       122       2       1    1.3579   -2.0215   29.0893   0   0   0
       123       2       1    1.5834   -2.7436   30.4099   0   0   0
       124       2       1    1.3187   -1.7217   31.5411   0   0   0
       125       2       1    1.7030   -2.3710   32.8866   0   0   0
       126       2       1    1.4897   -1.5071   34.1482   0   0   0
       127       2       1    2.2978   -1.8150   35.3384   0   0   0
       128       2       1    1.6705   -1.2271   36.6118   0   0   0
       129       2       1    2.1740   -1.9614   37.9204   0   0   0
       130       2       1    1.6539   -1.2695   39.2394   0   0   0
       131       2       1    2.0139   -1.9354   40.5204   0   0   0
       132       2       1    1.6895   -0.9516   41.6760   0   0   0
       133       2       1    2.1205   -1.6020   42.9735   0   0   0
       134       2       1    1.7859   -0.6745   44.2127   0   0   0
       135       2       1    2.0445   -1.3720   45.5528   0   0   0
       136       2       1    1.7836   -0.4659   46.7707   0   0   0
       137       2       1    2.1880   -1.1723   48.1326   0   0   0
       138       2       1    2.0713   -0.2915   49.3181   0   0   0
       139       2       1    2.4745   -0.9499   50.6569   0   0   0
       140       2       1    2.4692   -0.0004   51.8369   0   0   0
       141       2       1    2.5299   -0.6493   53.2275   0   0   0
       142       2       1    2.5238    0.3961   54.3776   0   0   0
       143       2       1    2.4922   -0.1028   55.8230   0   0   0
       144       2       1    2.6663    0.9568   56.9112   0   0   0
       145       2       1    2.6091    0.2805   58.2365   0   0   0
       146       2       1    2.5112    1.1418   59.5416   0   0   0
       147       2       1    2.5207    0.3601   60.8978   0   0   0
       148       2       1    2.5449    1.2353   62.1848   0   0   0
       149       2       1    2.7671    0.5557   63.5412   0   0   0
       150       2       1    2.1184    1.4096   64.6407   0   0   0
       151       2       1    2.3831    0.8203   66.0257   0   0   0
       152       2       1    2.1203    1.7316   67.2019   0   0   0
       153       2       1    2.3016    1.0501   68.5805   0   0   0
       154       2       1    1.9693    1.9957   69.6670   0   0   0
       155       2       1    2.1719    1.2847   70.9980   0   0   0
       156       2       1    2.3255    2.1791   72.2430   0   0   0
       157       2       1    2.2413    1.4639   73.6456   0   0   0
       158       2       1    2.3367    2.3050   74.9496   0   0   0
       159       2       1    2.5163    1.6007   76.2935   0   0   0
       160       2       1    2.6403    2.4365   77.5508   0   0   0
       161       2       1    2.9653    1.5483   78.8337   0   0   0
       162       2       1    3.1855    2.4822   80.0654   0   0   0
       163       2       1    3.0264    1.6971   81.4229   0   0   0
       164       2       1    2.7467    2.5485   82.6413   0   0   0
       165       2       1    3.2941    1.9470   83.9230   0   0   0
       166       2       1    2.7682    2.7004   85.1968   0   0   0
       167       2       1    3.0038    1.8188   86.4369   0   0   0
       168       2       1    2.8972    2.5110   87.8237   0   0   0
       169       2       1    3.3974    1.7063   89.0221   0   0   0
       170       2       1    3.0936    2.4846   90.2630   0   0   0
       171       2       1    3.6022    1.9143   91.6465   0   0   0
       172       2       1    3.2552    2.6936   92.8937   0   0   0
       173       2       1    3.6364    2.0574   94.2193   0   0   0
       174       2       1    3.0493    2.7836   95.4835   0   0   0
       175       2       1    3.5535    2.0876   96.7216   0   0   0
       176       2       1    3.1828    2.7547   98.0995   0   0   0
       177       2       1    3.6975    1.9597   99.3564   0   0   0
       178       2       1    3.3112    2.6874  100.6920   0   0   0
       179       2       1    3.7062    1.7847  101.8430   0   0   0
       180       2       1    3.7340    2.5528  103.2530   0   0   0
       181       2       1    3.9464    1.6200  104.4870   0   0   0
       182       2       1    3.6834    2.3443  105.8470   0   0   0
       183       2       1    3.7297    1.3938  107.0850   0   0   0
       184       2       1    3.5910    2.1556  108.4350   0   0   0
       185       2       1    3.7488    1.1632  109.6340   0   0   0
       186       2       1    3.6607    1.8049  111.0370   0   0   0
       187       2       1    3.7343    0.7499  112.1670   0   0   0
       188       2       1    3.5667    1.3867  113.5820   0   0   0
       189       2       1    3.7626    0.3838  114.6950   0   0   0
       190       2       1    3.5651    0.9981  116.0840   0   0   0
       191       2       1    3.5136    0.0059  117.2880   0   0   0
       192       2       1    3.4411    0.7242  118.6440   0   0   0
       193       2       1    3.3470   -0.2178  119.8390   0   0   0
       194       2       2    3.4621    0.4302  121.2330   0   0   0
       195       2       2    3.5156   -0.6780  122.2850   0   0   0
       196       2       2    3.1853   -0.2091  123.8580   0   0   0
 
Bonds
 
       1         1         1       2
       2         1         2       3
       3         1         3       4
       4         1         4       5
       5         1         5       6
       6         1         6       7
       7         1         7       8
       8         1         8       9
       9         1         9      10
      10         1        10      11
      11         1        11      12
      12         1        12      13
      13         1        13      14
      14         1        14      15
      15         1        15      16
      16         1        16      17
      17         1        17      18
      18         1        18      19
      19         1        19      20
      20         1        20      21
      21         1        21      22
      22         1        22      23
      23         1        23      24
      24         1        24      25
      25         1        25      26
      26         1        26      27
      27         1        27      28
      28         1        28      29
      29         1        29      30
      30         1        30      31
      31         1        31      32
      32         1        32      33
      33         1        33      34
      34         1        34      35
      35         1        35      36
      36         1        36      37
      37         1        37      38
      38         1        38      39
      39         1        39      40
      40         1        40      41
      41         1        41      42
      42         1        42      43
      43         1        43      44
      44         1        44      45
      45         1        45      46
      46         1        46      47
      47         1        47      48
      48         1        48      49
      49         1        49      50
      50         1        50      51
      51         1        51      52
      52         1        52      53
      53         1        53      54
      54         1        54      55
      55         1        55      56
      56         1        56      57
      57         1        57      58
      58         1        58      59
      59         1        59      60
      60         1        60      61
      61         1        61      62
      62         1        62      63
      63         1        63      64
      64         1        64      65
      65         1        65      66
      66         1        66      67
      67         1        67      68
      68         1        68      69
      69         1        69      70
      70         1        70      71
      71         1        71      72
      72         1        72      73
      73         1        73      74
      74         1        74      75
      75         1        75      76
      76         1        76      77
      77         1        77      78
      78         1        78      79
      79         1        79      80
      80         1        80      81
      81         1        81      82
      82         1        82      83
      83         1        83      84
      84         1        84      85
      85         1        85      86
      86         1        86      87
      87         1        87      88
      88         1        88      89
      89         1        89      90
      90         1        90      91
      91         1        91      92
      92         1        92      93
      93         1        93      94
      94         1        94      95
      95         1        95      96
      96         1        96      97
      97         1        97      98
      98         1        99     100
      99         1       100     101
     100         1       101     102
     101         1       102     103
     102         1       103     104
     103         1       104     105
     104         1       105     106
     105         1       106     107
     106         1       107     108
     107         1       108     109
     108         1       109     110
     109         1       110     111
     110         1       111     112
     111         1       112     113
     112         1       113     114
     113         1       114     115
     114         1       115     116
     115         1       116     117
     116         1       117     118
     117         1       118     119
     118         1       119     120
     119         1       120     121
     120         1       121     122
     121         1       122     123
     122         1       123     124
     123         1       124     125
     124         1       125     126
     125         1       126     127
     126         1       127     128
     127         1       128     129
     128         1       129     130
     129         1       130     131
     130         1       131     132
     131         1       132     133
     132         1       133     134
     133         1       134     135
     134         1       135     136
     135         1       136     137
     136         1       137     138
     137         1       138     139
     138         1       139     140
     139         1       140     141
     140         1       141     142
     141         1       142     143
     142         1       143     144
     143         1       144     145
     144         1       145     146
     145         1       146     147
     146         1       147     148
     147         1       148     149
     148         1       149     150
     149         1       150     151
     150         1       151     152
     151         1       152     153
     152         1       153     154
     153         1       154     155
     154         1       155     156
     155         1       156     157
     156         1       157     158
     157         1       158     159
     158         1       159     160
     159         1       160     161
     160         1       161     162
     161         1       162     163
     162         1       163     164
     163         1       164     165
     164         1       165     166
     165         1       166     167
     166         1       167     168
     167         1       168     169
     168         1       169     170
     169         1       170     171
     170         1       171     172
     171         1       172     173
     172         1       173     174
     173         1       174     175
     174         1       175     176
     175         1       176     177
     176         1       177     178
     177         1       178     179
     178         1       179     180
     179         1       180     181
     180         1       181     182
     181         1       182     183
     182         1       183     184
     183         1       184     185
     184         1       185     186
     185         1       186     187
     186         1       187     188
     187         1       188     189
     188         1       189     190
     189         1       190     191
     190         1       191     192
     191         1       192     193
     192         1       193     194
     193         1       194     195
     194         1       195     196
 
Angles
 
           1           1           1           2           3
           2           1           2           3           4
           3           1           3           4           5
           4           1           4           5           6
           5           1           5           6           7
           6           1           6           7           8
           7           1           7           8           9
           8           1           8           9          10
           9           1           9          10          11
          10           1          10          11          12
          11           1          11          12          13
          12           1          12          13          14
          13           1          13          14          15
          14           1          14          15          16
          15           1          15          16          17
          16           1          16          17          18
          17           1          17          18          19
          18           1          18          19          20
          19           1          19          20          21
          20           1          20          21          22
          21           1          21          22          23
          22           1          22          23          24
          23           1          23          24          25
          24           1          24          25          26
          25           1          25          26          27
          26           1          26          27          28
          27           1          27          28          29
          28           1          28          29          30
          29           1          29          30          31
          30           1          30          31          32
          31           1          31          32          33
          32           1          32          33          34
          33           1          33          34          35
          34           1          34          35          36
          35           1          35          36          37
          36           1          36          37          38
          37           1          37          38          39
          38           1          38          39          40
          39           1          39          40          41
          40           1          40          41          42
          41           1          41          42          43
          42           1          42          43          44
          43           1          43          44          45
          44           1          44          45          46
          45           1          45          46          47
          46           1          46          47          48
          47           1          47          48          49
          48           1          48          49          50
          49           1          49          50          51
          50           1          50          51          52
          51           1          51          52          53
          52           1          52          53          54
          53           1          53          54          55
          54           1          54          55          56
          55           1          55          56          57
          56           1          56          57          58
          57           1          57          58          59
          58           1          58          59          60
          59           1          59          60          61
          60           1          60          61          62
          61           1          61          62          63
          62           1          62          63          64
          63           1          63          64          65
          64           1          64          65          66
          65           1          65          66          67
          66           1          66          67          68
          67           1          67          68          69
          68           1          68          69          70
          69           1          69          70          71
          70           1          70          71          72
          71           1          71          72          73
          72           1          72          73          74
          73           1          73          74          75
          74           1          74          75          76
          75           1          75          76          77
          76           1          76          77          78
          77           1          77          78          79
          78           1          78          79          80
          79           1          79          80          81
          80           1          80          81          82
          81           1          81          82          83
          82           1          82          83          84
          83           1          83          84          85
          84           1          84          85          86
          85           1          85          86          87
          86           1          86          87          88
          87           1          87          88          89
          88           1          88          89          90
          89           1          89          90          91
          90           1          90          91          92
          91           1          91          92          93
          92           1          92          93          94
          93           1          93          94          95
          94           1          94          95          96
          95           1          95          96          97
          96           1          96          97          98
          97           1          99         100         101
          98           1         100         101         102
          99           1         101         102         103
         100           1         102         103         104
         101           1         103         104         105
         102           1         104         105         106
         103           1         105         106         107
         104           1         106         107         108
         105           1         107         108         109
         106           1         108         109         110
         107           1         109         110         111
         108           1         110         111         112
         109           1         111         112         113
         110           1         112         113         114
         111           1         113         114         115
         112           1         114         115         116
         113           1         115         116         117
         114           1         116         117         118
         115           1         117         118         119
         116           1         118         119         120
         117           1         119         120         121
         118           1         120         121         122
         119           1         121         122         123
         120           1         122         123         124
         121           1         123         124         125
         122           1         124         125         126
         123           1         125         126         127
         124           1         126         127         128
         125           1         127         128         129
         126           1         128         129         130
         127           1         129         130         131
         128           1         130         131         132
         129           1         131         132         133
         130           1         132         133         134
         131           1         133         134         135
         132           1         134         135         136
         133           1         135         136         137
         134           1         136         137         138
         135           1         137         138         139
         136           1         138         139         140
         137           1         139         140         141
         138           1         140         141         142
         139           1         141         142         143
         140           1         142         143         144
         141           1         143         144         145
         142           1         144         145         146
         143           1         145         146         147
         144           1         146         147         148