LAMMPS (16 Mar 2018)
# 1. INITIALIZATION
#allows pair, bond, bending and dihedral interactions
atom_style molecular

  # periodic (video game) boundaries in all cartesian directions
boundary p p s

  # uses real units (instead of units based on pair potential parameters).  List of units used in manual
units real

###########
# 2. ATOM DEFINITION
##########

   ##
   # Read in data from starting configuration file
   ##

#read_data chainconfig.dat

 #use to restart
read_restart RESTART
  orthogonal box = (-400 -400 -0.0371672) to (400 400 123.895)
  1 by 1 by 1 MPI processor grid
  196 atoms
  194 bonds
  192 angles
  190 dihedrals
  2 = max # of 1-2 neighbors
  2 = max # of 1-3 neighbors
  4 = max # of 1-4 neighbors
  6 = max # of special neighbors

   ##
   # Specify the nature of the bond interactions
   ##


bond_style harmonic
bond_coeff 1 450 1.54

special_bonds lj 0.0 0.0 0.0 angle no dihedral no

angle_style harmonic
angle_coeff 1 62.1  114.00

dihedral_style opls
dihedral_coeff * 1.4110 -0.2708 3.143 0.0

mass * 14.0

pair_style lj/cut 14.0
pair_coeff 1 1 0.0912 3.95 14.0
#pair_modify tail yes

group twistables type 3
6 atoms in group twistables
group freeze type 2
6 atoms in group freeze
fix startend freeze setforce 0.0 0.0 0.0
fix startend0 twistables setforce 0.0 0.0 0.0

################
# 3.  Simulation Settings
###############

neighbor        2.0 bin
neigh_modify    every 1 delay 0 check yes



# Define some variables
variable Lx          equal xhi-xlo   # Ang
variable Ly          equal yhi-ylo   # Ang
variable Lz          equal zhi-zlo   # Ang

variable dz          equal ${Lz}/30  # Ang
variable dz          equal 123.931948666893/30  

variable zzlo        equal zlo+0.05  # Ang
variable zzhi        equal zhi  # Ang
variable vol         equal ${Lx}*${Ly}*${Lz}  # Ang^3
variable vol         equal 800*${Ly}*${Lz}  
variable vol         equal 800*800*${Lz}  
variable vol         equal 800*800*123.931948666893  
variable TEMP        equal 300.00 # K
variable TThi        equal 320.00 # K
variable TTlo        equal 280.00 # K
variable dt          equal 1.25 # fs

timestep     ${dt}
timestep     1.25

variable zlo1      equal ${zzlo}+2.7
variable zlo1      equal 0.0128327665533126+2.7
variable zlo2      equal ${zzlo}+8.4
variable zlo2      equal 0.0128327665533126+8.4
variable zhi1      equal ${zzlo}+115.5
variable zhi1      equal 0.0128327665533126+115.5
variable zhi2      equal ${zzlo}+121
variable zhi2      equal 0.0128327665533126+121

# heat layers

region          hot  block  INF INF INF INF ${zlo1} ${zlo2}
region          hot  block  INF INF INF INF 2.71283276655331 ${zlo2}
region          hot  block  INF INF INF INF 2.71283276655331 8.41283276655331
region          cold block INF INF INF INF ${zhi1} ${zhi2}
region          cold block INF INF INF INF 115.512832766553 ${zhi2}
region          cold block INF INF INF INF 115.512832766553 121.012832766553
compute         Thot all temp/region hot
compute         Tcold all temp/region cold


# 1st equilibration run
fix             1 all nvt temp ${TEMP} ${TEMP} 50
fix             1 all nvt temp 300 ${TEMP} 50
fix             1 all nvt temp 300 300 50
thermo          100
run             8000
Unused restart file peratom fix info:
  fix style: STORE, fix ID: layers_COMPUTE_STORE
Neighbor list info ...
  update every 1 steps, delay 0 steps, check yes
  max neighbors/atom: 2000, page size: 100000
  master list distance cutoff = 16
  ghost atom cutoff = 16
  binsize = 8, bins = 100 100 16
  1 neighbor lists, perpetual/occasional/extra = 1 0 0
  (1) pair lj/cut, perpetual
      attributes: half, newton on
      pair build: half/bin/newton
      stencil: half/bin/3d/newton
      bin: standard
Per MPI rank memory allocation (min/avg/max) = 9.689 | 9.689 | 9.689 Mbytes
Step Temp E_pair E_mol TotEng Press Volume 
134452000    256.51756    724.38483    3017.4907    3890.9784   -6.6466497     79316447 
134452100    297.96924    716.33668    3034.7348    3924.2684   -6.7790513     79316447 
134452200    296.06394    719.16782    3029.5742    3920.8316   -6.7805747     79316447 
134452300    295.74012    698.41898    3031.2364    3901.5567   -6.8716846     79316447 
134452400    297.34561    707.30004    3052.4233    3932.5579   -6.8092287     79316447 
134452500    277.40162    736.74185    3010.6263      3908.61   -6.5927071     79316447 
134452600    282.08285     711.2677      3009.71    3884.9406   -6.7661722     79316447 
134452700    309.83847    723.34178    3021.1491    3924.5869   -6.5407716     79316447 
134452800    289.56651    708.18468    3040.4884    3916.9859     -6.59834     79316447 
134452900    307.64815    693.68979    3030.9162    3903.4289    -6.566724     79316447 
134453000    307.32139    727.35096    3015.4855    3921.4694   -6.3444771     79316447 
134453100    260.20569    718.40673    3015.2521    3884.9055   -6.3991665     79316447 
134453200    298.14974    736.72067    3005.7406    3915.7632   -6.2426963     79316447 
134453300    319.06917    714.38949    3027.6869    3927.5378   -6.5033741     79316447 
134453400    271.77417    718.15484    3033.2723     3909.398   -6.4586792     79316447 
134453500    323.68618    724.29625     3026.641    3939.0824   -6.5911428     79316447 
134453600    300.37082    717.36102    3021.2069    3913.1609   -6.6739712     79316447 
134453700    282.01612    755.08094     2998.711    3917.7161   -6.5410376     79316447 
134453800    336.88162    745.79988    3014.2373    3955.8523   -6.6397749     79316447 
134453900    303.10696    715.17482    3022.8971    3914.2552   -6.6765068     79316447 
134454000    307.66558    683.37217    3077.4386    3939.6438   -6.9364004     79316447 
134454100    295.77378     682.0582     3046.646    3900.6251    -6.818575     79316447 
134454200    331.41424    712.59106    3021.4728     3926.701   -6.5581197     79316447 
134454300    289.62754    752.54218      2980.67    3901.5605   -6.2416537     79316447 
134454400    322.39543    766.21571    2970.2281    3923.8387   -6.1719282     79316447 
134454500    293.28413    762.71529    2984.9892    3918.1782    -6.260955     79316447 
134454600    294.88512    739.46603    2988.8315    3899.7019   -6.3459717     79316447 
134454700    279.26546    713.79465    3044.2358    3920.3557   -6.5501266     79316447 
134454800    302.27146    699.82872    3058.8799    3934.4063   -6.7107964     79316447 
134454900    282.01683    699.82797    3037.7193    3901.4718   -6.7503702     79316447 
134455000    296.68007    708.01363    3051.6938    3932.1551   -6.7121505     79316447 
134455100     304.0123    724.79032    3013.5051     3915.005   -6.5684267     79316447 
134455200    325.08949    730.75164    3015.7295     3935.442   -6.6144756     79316447 
134455300    292.40247    697.35395    3051.0317    3918.3469   -6.8540024     79316447 
134455400    283.88778    713.23851    3038.3764     3916.627   -6.7227896     79316447 
134455500    339.00089    747.41472    3000.4629    3944.9246   -6.5052518     79316447 
134455600    295.87017    771.78188    2972.7128    3916.4716   -6.2683295     79316447 
134455700    308.57481    739.45042    3011.1754    3929.9874   -6.3510164     79316447 
134455800    298.77773    727.35857     3017.361    3918.3865   -6.4444367     79316447 
134455900    296.48604    715.93536    3024.9322    3913.2024   -6.5299014     79316447 
134456000    315.52301    724.38768    3037.1387    3944.9267   -6.5024806     79316447 
134456100    306.62183    725.17898     3016.446    3919.8514   -6.4233963     79316447 
134456200    281.77449    711.89493    3029.9528    3905.6314   -6.5408799     79316447 
134456300    315.82301    717.49968    3033.6885    3934.7628   -6.5479514     79316447 
134456400    274.38951    722.34564    3036.7946    3918.6314    -6.669844     79316447 
134456500    326.58738    703.54872    3047.7156    3941.0958   -6.7159429     79316447 
134456600    293.17001    700.05876    3051.3367    3921.8029   -6.7306289     79316447 
134456700    286.96371    706.55678    3047.5127    3920.8695   -6.6731508     79316447 
134456800    333.47075    725.72403    3025.9558    3945.5123   -6.4700602     79316447 
134456900    293.66348      725.158    3019.4551    3915.3074   -6.4930684     79316447 
134457000    316.84666    714.41611    3027.9301    3926.5158   -6.5433098     79316447 
134457100     301.6159    708.22501    3060.8376    3944.3793   -6.6216864     79316447 
134457200    302.84146    715.82777    3020.2054    3912.0622   -6.5342656     79316447 
134457300    314.88274    741.99625    3026.3763    3951.4007   -6.4719879     79316447 
134457400    314.86373    735.02179    3002.8048    3920.8436   -6.5951925     79316447 
134457500    295.79009    727.65409    3012.6684    3912.2529   -6.6469749     79316447 
134457600    331.99037    709.27323    3043.4712    3945.7164   -6.7504544     79316447 
134457700    296.78578     717.6551    3019.7119    3909.8761   -6.6920287     79316447 
134457800    331.14394    733.54458    3007.8556    3933.8803   -6.6134302     79316447 
134457900    284.56527    736.10945    3007.7029    3909.2182   -6.5627749     79316447 
134458000     288.5329    739.08188    3017.9216    3924.7156   -6.5481383     79316447 
134458100    307.06169     765.4754     2996.743    3940.7005   -6.2629842     79316447 
134458200    292.90759    762.57679    2970.6851    3903.5167   -6.1699698     79316447 
134458300    306.47601    721.52306    3037.1729    3936.8376   -6.3956686     79316447 
134458400    284.73113    693.04874    3052.2311     3910.782   -6.5903421     79316447 
134458500    271.51871    686.11242    3070.5587    3914.4935   -6.6883546     79316447 
134458600    333.34862    686.37726    3052.5511    3932.6899   -6.7284728     79316447 
134458700    335.37093    742.32701    3004.3784    3941.6425   -6.4787571     79316447 
134458800    293.71331    742.88363    2998.2218    3911.8286   -6.3750819     79316447 
134458900    324.17595      737.716    3012.5267    3938.6725   -6.5210264     79316447 
134459000     280.3957    741.60997    3003.4285    3908.0207    -6.547965     79316447 
134459100    319.17901    712.59304     3019.504    3917.6224   -6.7122174     79316447 
134459200    307.30432    721.23113    3047.9972    3947.8514   -6.8145369     79316447 
134459300    294.65305    720.35613    3019.8623    3911.4879   -6.7817145     79316447 
134459400    309.79329    720.68782     3029.571    3930.3287   -6.7402784     79316447 
134459500    277.84664    710.02901    3035.4676    3906.9972   -6.6894688     79316447 
134459600    286.66356    681.83887    3070.6231    3919.0874   -6.7287736     79316447 
134459700    293.17797    698.60976    3061.6333    3930.6551   -6.6653164     79316447 
134459800    270.38641    720.94733    3040.3415    3918.4531   -6.3734594     79316447 
134459900    316.48703    723.30182    3038.2556     3945.518   -6.4808389     79316447 
134460000    292.73702    745.47233    2993.2935    3908.9215   -6.3148522     79316447 
Loop time of 1.09993 on 1 procs for 8000 steps with 196 atoms

Performance: 785.503 ns/day, 0.031 hours/ns, 7273.177 timesteps/s
99.9% CPU use with 1 MPI tasks x no OpenMP threads

MPI task timing breakdown:
Section |  min time  |  avg time  |  max time  |%varavg| %total
---------------------------------------------------------------
Pair    | 0.39932    | 0.39932    | 0.39932    |   0.0 | 36.30
Bond    | 0.64798    | 0.64798    | 0.64798    |   0.0 | 58.91
Neigh   | 0.0068474  | 0.0068474  | 0.0068474  |   0.0 |  0.62
Comm    | 0.0020788  | 0.0020788  | 0.0020788  |   0.0 |  0.19
Output  | 0.00050926 | 0.00050926 | 0.00050926 |   0.0 |  0.05
Modify  | 0.035994   | 0.035994   | 0.035994   |   0.0 |  3.27
Other   |            | 0.007202   |            |       |  0.65

Nlocal:    196 ave 196 max 196 min
Histogram: 1 0 0 0 0 0 0 0 0 0
Nghost:    0 ave 0 max 0 min
Histogram: 1 0 0 0 0 0 0 0 0 0
Neighs:    3869 ave 3869 max 3869 min
Histogram: 1 0 0 0 0 0 0 0 0 0

Total # of neighbors = 3869
Ave neighs/atom = 19.7398
Ave special neighs/atom = 5.87755
Neighbor list builds = 32
Dangerous builds = 0
velocity        all scale ${TEMP}
velocity        all scale 300
unfix           1

# Second Equilibration
fix             1 all nve
fix             hot all langevin ${TThi} ${TThi}  50.0 599804  tally yes
fix             hot all langevin 320 ${TThi}  50.0 599804  tally yes
fix             hot all langevin 320 320  50.0 599804  tally yes
fix             cold all langevin ${TTlo} ${TTlo} 50.0 27859 tally yes
fix             cold all langevin 280 ${TTlo} 50.0 27859 tally yes
fix             cold all langevin 280 280 50.0 27859 tally yes
fix_modify      hot temp Thot
fix_modify      cold temp Tcold


variable        tdiff equal c_Thot-c_Tcold
thermo_style    custom step c_Thot c_Tcold f_hot f_cold v_tdiff
thermo          4000
run             1600000
Per MPI rank memory allocation (min/avg/max) = 10.44 | 10.44 | 10.44 Mbytes
Step c_Thot c_Tcold f_hot f_cold v_tdiff 
134460000    352.54514    386.00621           -0           -0   -33.461064 
134464000    409.46063    351.25809   -1.8149933    25.050204    58.202542 
134468000    412.27623    277.14717   -45.015134    47.822699    135.12906 
134472000    346.31938     169.2777   -82.902648    85.496878    177.04168 
134476000    218.29461     299.6036   -88.959175    115.25346   -81.308996 
134480000    301.18522    478.76813   -135.29976    153.63554   -177.58291 
134484000    171.90898    340.69073   -166.25737    192.68941   -168.78175 
134488000    414.95446     220.7209   -182.00123    200.90475    194.23356 
134492000    446.93208    384.16512    -190.9792     207.3796    62.766961 
134496000     309.9341    170.44788   -222.48817    246.60459    139.48622 
134500000    436.54453    270.71934   -267.40376    289.45758    165.82518 
134504000     382.5913    267.64327   -295.58291    305.62054    114.94803 
134508000    279.94664    281.00128   -321.67339    326.63324   -1.0546432 
134512000    321.60693    296.07981   -326.90779    365.49318    25.527117 
134516000    561.35968    164.85717   -378.20328    383.48181    396.50251 
134520000    222.40174    374.20383    -395.1877     424.1458   -151.80209 
134524000     335.7249    388.53828   -391.86307    405.94003   -52.813383 
134528000    302.03978    154.15785   -429.16322    447.71607    147.88193 
134532000    267.39027    305.52081   -466.63261    469.80758    -38.13054 
134536000     185.7645    360.51699   -468.89182    478.61468   -174.75248 
134540000    499.86327    503.02003    -496.9828    491.09014   -3.1567589 
134544000    310.01406    276.37005   -525.24545    510.81582    33.644015 
134548000    390.99385    402.32771   -550.01983    538.84574   -11.333857 
134552000    287.46002    247.41944   -571.18768    580.70885    40.040586 
134556000    196.41947    597.81166   -574.10405    601.27719   -401.39219 
134560000     256.9467     253.1954    -581.4608    594.85496    3.7512957 
134564000    343.58036     410.1406   -584.53156    592.55185   -66.560241 
134568000    322.26743    193.55929   -625.97007    617.64613    128.70814 
134572000    306.34959    278.31804   -649.28128    656.35827    28.031553 
134576000    444.28184    262.55836   -655.83079    663.53096    181.72348 
134580000    497.52536    343.01168   -705.17448     684.4444    154.51368 
134584000    356.20503     374.0545    -732.7985    723.80357   -17.849473 
134588000    340.19036    305.46963   -757.53323    769.81191    34.720735 
134592000    301.66946    278.41189   -761.37998    783.07856    23.257569 
134596000    375.65571    232.05149    -801.8578     806.0865    143.60422 
134600000    180.39758    269.61342   -812.05032    827.88155   -89.215832 
134604000    415.46406    384.77795   -819.15104    858.63746    30.686114 
134608000    396.33167    548.16439   -867.13967     868.8191   -151.83272 
134612000    627.69379    423.47113   -890.10363    905.43197    204.22266 
134616000     209.0806      347.115    -905.9187    916.37323    -138.0344 
134620000    291.76176    366.10621    -936.8739    945.39383   -74.344444 
134624000    410.14252    363.22745   -971.37004    969.42243    46.915069 
134628000    336.07411    371.41991   -986.74691    1003.2114   -35.345798 
134632000    355.91855    299.04248   -1010.4305    1024.3351    56.876075 
134636000    311.53469    322.34878   -1038.7336    1018.1999   -10.814092 
134640000    333.87736    398.47423   -1062.7279    1051.3272    -64.59687 
134644000    415.25342    393.60074   -1081.1532    1100.8337     21.65268 
134648000    514.11425    385.27081   -1123.9113    1118.8364    128.84344 
134652000    286.87189    317.50314   -1155.5738    1171.2951   -30.631251 
134656000    492.88842    390.71589   -1171.0139    1193.8604    102.17253 
134660000    416.90532    329.75404   -1181.0106    1178.5711    87.151282 
134664000    401.37803    218.80732   -1224.1279    1232.2551    182.57071 
134668000      408.205    217.98239   -1252.4419    1271.9917    190.22261 
134672000    416.85166    207.75689   -1265.9251    1289.8183    209.09477 
134676000    274.90733    208.22623   -1280.6197     1291.965      66.6811 
134680000    415.69051    352.76284   -1307.8916    1310.2066    62.927675 
134684000    309.58648    163.84066   -1337.8363    1356.6623    145.74581 
134688000    402.32043    305.24361    -1350.501    1377.4386    97.076826 
134692000    310.99336    440.52615   -1362.1593     1385.819   -129.53278 
134696000    327.04611     485.2972   -1396.1427    1413.4503   -158.25109 
134700000    369.87566    264.75595   -1431.2694    1441.1367    105.11971 
134704000    245.54237    224.08516   -1440.7612    1433.3012    21.457206 
134708000    415.85379    424.50189   -1442.4828    1458.8562   -8.6481037 
134712000     434.5243    139.69383   -1452.1843    1481.2898    294.83047 
134716000    590.28666    287.61154   -1490.7797      1510.49    302.67512 
134720000    250.40718    321.98253   -1502.8446    1508.5162   -71.575348 
134724000    374.37058    393.85096    -1520.836    1545.1168   -19.480379 
134728000    436.74827    485.91346    -1532.552    1552.3083   -49.165189 
134732000    363.63056    337.40899   -1584.2913    1596.2281    26.221577 
134736000    248.02487    253.46553   -1641.5095    1646.8757   -5.4406576 
134740000    382.19992    374.13344   -1656.2374    1654.0631    8.0664731 
134744000    304.62478    377.24979   -1686.5277    1680.3377   -72.625011 
134748000    395.66144    350.32135   -1707.8953     1715.694    45.340094 
134752000    310.05727    478.99185    -1705.344    1698.8456   -168.93458 
134756000    436.56211     408.3275    -1734.213    1742.6585    28.234616 
134760000    494.95453     444.5013   -1747.4857    1767.8256    50.453231 
134764000    366.91602     447.2002   -1802.5581    1811.2375   -80.284175 
134768000    247.35313    210.13949   -1789.5018    1847.3273    37.213643 
134772000    393.97168    238.54019   -1814.7385    1843.3851    155.43149 
134776000    290.39559     256.8327   -1840.5224    1860.3416    33.562886 
134780000    219.13252    259.47002   -1886.7744     1878.254   -40.337501 
134784000    294.44448    284.78863   -1905.5831    1921.5035    9.6558533 
134788000    335.30291    371.99929   -1920.6253    1943.3455   -36.696381 
134792000    275.17338    325.68339   -1967.1287    1969.5213   -50.510016 
134796000    371.56206    260.59848   -1974.1473    1999.3009    110.96358 
134800000    513.59402    304.25715   -2007.9987    2024.4097    209.33686 
134804000    344.58687    227.17617    -2067.354    2067.0601     117.4107 
134808000    219.91417    245.22498   -2075.3981    2106.5426   -25.310807 
134812000     542.0655    349.90857   -2115.1713    2096.7001    192.15693 
134816000    367.86785    287.66292   -2142.9281    2145.6759    80.204937 
134820000    390.01103    222.48692   -2158.4833    2152.4258    167.52411 
134824000    299.66442    259.56611   -2174.2959    2196.4175     40.09831 
134828000    443.93127    361.84569   -2220.9227    2226.5711    82.085581 
134832000    196.02087    156.77813   -2243.6426    2257.3392    39.242739 
134836000    481.34368    476.56812   -2278.1774    2288.3656    4.7755544 
134840000    460.15475    300.86887   -2316.3972    2349.9449    159.28589 
134844000    258.42189    159.16496   -2347.7446    2350.4702    99.256934 
134848000    340.11596    367.71898   -2363.5364    2362.3961   -27.603016 
134852000    356.95605    255.76549   -2360.0792    2384.5246    101.19056 
134856000    475.81254     395.1635   -2368.6669    2380.6915    80.649041 
134860000    347.75072    155.53309   -2382.8423    2408.8088    192.21763 
134864000    580.99393    244.16647   -2401.4358    2425.6438    336.82746 
134868000    377.01901    196.78471   -2401.4383    2414.1494     180.2343 
134872000     432.0796    318.18753   -2434.0146    2448.8817    113.89208 
134876000    208.76435    381.62962   -2451.4576    2466.9443   -172.86527 
134880000    249.31238    319.01361   -2502.0145    2527.1556   -69.701231 
134884000    301.60476    427.99787   -2535.9108    2547.4675   -126.39311 
134888000    291.81617     306.7176   -2545.7285    2540.8818   -14.901431 
134892000    266.37783    314.10643   -2548.8351    2576.3552   -47.728605 
134896000    351.13184    220.72793   -2588.0246    2586.8364    130.40391 
134900000    293.75126    186.29193      -2598.2    2599.9685    107.45933 
134904000    478.81769    341.21423   -2623.1113    2623.2958    137.60346 
134908000     452.4308    430.29533   -2646.5712    2667.6225    22.135464 
134912000    240.88035    401.59425   -2667.7156    2675.8475   -160.71389 
134916000    300.88286    325.54399   -2674.2253    2718.6648   -24.661129 
134920000    234.23044    354.35143   -2695.4509     2723.988   -120.12099 
134924000    328.26745    333.27661   -2748.5469     2763.907   -5.0091665 
134928000    291.39499    314.08534    -2774.164    2777.7166   -22.690345 
134932000    356.56385    416.02263   -2774.6678    2796.7265    -59.45878 
134936000    227.59317    209.33062   -2792.4007    2806.8225    18.262552 
134940000    411.40186    219.15838   -2826.1817    2829.6758    192.24348 
134944000    426.28198    257.00986   -2845.4061    2872.7731    169.27211 
134948000    402.18212    183.38891   -2893.0361    2894.5341     218.7932 
134952000     325.7191    420.68732   -2902.0291    2924.2517   -94.968217 
134956000    196.50648    376.16317   -2932.4692    2930.6433   -179.65669 
134960000    318.20707    404.32873   -2931.7349    2965.5085   -86.121657 
134964000    407.68119    490.36682   -2949.2423     2973.335    -82.68563 
134968000    464.22559    382.43705   -2964.8318    3005.8385    81.788537 
134972000    424.49752     400.7121   -3010.0887     3035.146    23.785415 
134976000    418.68147    328.55033   -3043.4811    3067.6072     90.13114 
134980000    281.46199    233.89359   -3094.9089    3084.6613    47.568396 
134984000    374.72728    299.24362    -3127.945    3140.6194    75.483661 
134988000    443.12121    366.23844   -3167.6991     3191.979    76.882777 
134992000     431.0431    448.83777   -3181.8739    3193.9453   -17.794672 
134996000    482.93917    603.84395   -3218.0661    3213.1551   -120.90477 
135000000    307.97703    245.24474   -3274.1737     3286.423    62.732288 
135004000    445.34096    425.32045   -3302.5248    3305.6328    20.020505 
135008000    196.52157    248.21121   -3320.7942    3346.6637    -51.68964 
135012000     237.2609    361.11106   -3319.7142    3332.7535   -123.85016 
135016000    278.85652    311.98891   -3352.2615     3358.029   -33.132391 
135020000    203.16621    436.03136   -3366.8866    3364.6427   -232.86515 
135024000    408.98433    368.92191   -3422.1026     3414.843    40.062414 
135028000    359.28103     484.4481   -3433.3894    3429.1884   -125.16707 
135032000    194.75465    539.07205   -3450.9978    3456.6395    -344.3174 
135036000    293.78356    399.72973   -3463.3133    3475.9494   -105.94617 
135040000    401.68745    294.16989   -3494.1978    3489.9269    107.51756 
135044000    324.86397    257.11184   -3511.9715    3505.3086    67.752131 
135048000    376.51859    466.98392   -3528.0125    3526.8672   -90.465329 
135052000    377.62832     322.4502   -3540.1081    3540.5169    55.178121 
135056000    286.68168    280.18712     -3558.96    3580.4358    6.4945607 
135060000    483.22832    134.01075   -3571.8175    3588.6654    349.21758 
135064000    401.87922    338.38855   -3608.9789    3603.9881    63.490677 
135068000    499.00224    422.22097   -3632.6102     3630.288     76.78127 
135072000    217.13558      521.666   -3635.8676    3649.4248   -304.53042 
135076000    389.36551     450.3342   -3671.8041    3684.5151   -60.968699 
135080000    389.85705     241.5982   -3714.4714    3728.0621    148.25885 
135084000    257.39729    243.28805   -3708.3163    3741.3491    14.109242 
135088000    282.10552    376.01399   -3733.2948    3762.2184   -93.908465 
135092000    640.86996    154.35119   -3766.8438    3780.9777    486.51876 
135096000    390.24322    260.27537   -3790.6339    3827.3769    129.96785 
135100000    445.87145    481.05661   -3807.4108     3835.651    -35.18516 
135104000    146.96763    377.68471   -3860.3429    3870.9007   -230.71708 
135108000    497.08659    217.74769   -3866.3164    3884.0265    279.33889 
135112000    199.08236    395.23189    -3868.159    3889.0384   -196.14953 
135116000     394.1964    352.42854   -3897.3527    3914.5831    41.767861 
135120000    266.34122    374.73989   -3918.6117    3940.8851   -108.39867 
135124000     397.3571     481.0231    -3958.035    3965.0252   -83.665999 
135128000    232.20102    332.54289   -3977.4983    3982.7073   -100.34187 
135132000    312.53667    234.63279   -4013.2837    4013.4387    77.903875 
135136000     259.9288    246.51211   -4028.8835    4045.0672    13.416692 
135140000     195.5173    269.70637   -4054.7584    4066.5537   -74.189067 
135144000    322.17125    343.92422   -4064.0549    4073.8958   -21.752973 
135148000    321.99412    249.79062   -4096.7479    4092.5056    72.203502 
135152000    299.40794    466.27334   -4128.5022    4122.9557    -166.8654 
135156000    491.52751    543.02121   -4123.0354    4132.2931   -51.493705 
135160000    457.65582     278.2364   -4182.2577    4176.2524    179.41942 
135164000    421.98695    346.85461   -4212.7898    4186.7335    75.132333 
135168000    328.76603    338.07225    -4205.792    4230.8575   -9.3062192 
135172000     396.0058     367.8911   -4246.3101    4245.8516    28.114692 
135176000    226.01683    270.87614   -4223.2834    4264.8757   -44.859304 
135180000    559.12865    472.81016   -4254.8262     4272.787    86.318489 
135184000    357.75018    237.85383   -4293.5872    4323.8186    119.89635 
135188000    599.64788    400.75461    -4322.745    4346.5228    198.89327 
135192000    399.25951     449.6812   -4344.5288     4347.936   -50.421688 
135196000    323.40895    261.51568   -4362.2411     4377.248    61.893273 
135200000     490.2616     308.9074   -4378.8253    4394.5106     181.3542 
135204000    269.56953    223.50348   -4406.0807    4417.0719    46.066055 
135208000    453.65728    136.30678   -4438.8104    4443.3685     317.3505 
135212000    322.19513    391.75482   -4443.9395    4479.6803   -69.559687 
135216000    221.26461     268.5031   -4477.6678    4489.1754   -47.238496 
135220000    331.18381    236.03032   -4514.9118    4524.5918    95.153489 
135224000    232.11399    313.46305   -4532.9882    4538.6551   -81.349065 
135228000     475.8486    298.26203   -4560.4996    4556.3812    177.58657 
135232000    298.13226    339.01425    -4596.295    4596.6007   -40.881991 
135236000    307.88983    331.09395   -4622.5899    4640.1205   -23.204123 
135240000    213.41081    318.52208   -4631.3549    4658.6695   -105.11127 
135244000     404.3774    297.80783   -4656.8788    4683.1063    106.56957 
135248000    386.77565     231.2648   -4707.8478     4729.788    155.51085 
135252000    175.36934    305.06074   -4730.5811    4753.2403    -129.6914 
135256000    111.79494    418.13765   -4776.4382    4813.2309   -306.34271 
135260000    351.32076    532.66183   -4811.7938    4818.9886   -181.34107 
135264000    230.76454    244.69701   -4840.1261    4847.2138   -13.932472 
135268000    333.18245    290.50754   -4871.1498    4888.3287    42.674907 
135272000    330.58299    226.31693   -4894.9834     4907.986    104.26606 
135276000    422.27638    189.88979   -4930.0446    4943.3802    232.38659 
135280000    283.85434    119.30347   -4960.2481    4956.2271    164.55087 
135284000    431.15958    380.44587   -4966.6481    4995.4198    50.713708 
135288000    224.32318    352.66215   -4994.8737    4993.4812   -128.33897 
135292000    260.97015    288.11713   -5036.9373    5027.1982   -27.146981 
135296000    359.50552    319.57783    -5042.929    5054.1811     39.92769 
135300000    531.37011    148.59125   -5058.1749    5047.1616    382.77885 
135304000    292.08945    270.75605   -5031.6306    5065.9474      21.3334 
135308000    372.53447     378.5648   -5070.9416    5091.4649   -6.0303263 
135312000    188.46545    414.39334   -5046.5793    5085.4807   -225.92789 
135316000    429.43254    156.36938     -5064.88    5098.6432    273.06316 
135320000     428.1503    362.07786   -5088.4701    5104.4583    66.072439 
135324000     167.2689    257.51286   -5093.5785    5118.6158   -90.243959 
135328000    432.18012    493.15845   -5132.9912    5139.2409   -60.978324 
135332000     252.8658    333.48973   -5140.6968    5142.5466   -80.623928 
135336000     379.9945    273.77278   -5144.3515     5163.514    106.22171 
135340000    348.51603    352.46973    -5173.678    5181.5358   -3.9537077 
135344000    442.86409    483.48879   -5191.3537    5201.9407   -40.624695 
135348000    372.24504     486.6466   -5197.3405    5230.5733   -114.40156 
135352000    291.07418    267.45576   -5218.7951    5229.3803    23.618428 
135356000      428.951    241.78608   -5225.9528    5239.1899    187.16492 
135360000    394.54423    290.86017   -5235.1358    5243.8921    103.68406 
135364000    188.91489    359.45358   -5256.5049    5268.6667   -170.53868 
135368000    315.80486    364.22731   -5264.7061    5303.8824   -48.422454 
135372000    205.58173    263.24947   -5305.2952    5333.1418   -57.667738 
135376000    140.70849    323.12903    -5340.429    5367.5149   -182.42055 
135380000    311.53783    247.58566   -5369.6581    5380.3758    63.952167 
135384000    267.17944    199.66517   -5376.1581     5412.582    67.514272 
135388000    225.30809    474.26523   -5393.9362    5422.4398   -248.95713 
135392000    323.27423    292.26059   -5424.1966    5444.7847    31.013638 
135396000    468.81165     267.6741   -5473.5024    5483.7887    201.13755 
135400000    312.79555    385.79165   -5497.0504    5522.0331   -72.996096 
135404000     762.0908    320.83097    -5523.471    5540.7419    441.25983 
135408000    354.70124    450.94203   -5544.2388    5558.7711    -96.24079 
135412000     225.4439    489.84675   -5574.9927    5578.6078   -264.40284 
135416000    381.66069    345.29125   -5605.3831    5603.2766    36.369437 
135420000    300.17177    273.38847   -5642.8067    5640.4957    26.783298 
135424000    492.57228    311.01332   -5664.4885    5667.4548    181.55896 
135428000    444.77712    245.05748   -5690.8675    5681.7899    199.71965 
135432000     525.6868    287.40939   -5704.6455    5707.4591    238.27742 
135436000    217.59279    256.56442   -5704.8202    5707.8177   -38.971631 
135440000    274.63273     383.2708   -5729.3961     5748.346   -108.63807 
135444000     361.0023    403.39242   -5772.9298    5787.2243   -42.390115 
135448000    303.78497    310.66438   -5812.6233    5830.5617   -6.8794101 
135452000    319.70203      421.209   -5829.9161    5836.4176   -101.50697 
135456000    292.13568    226.03534   -5839.5692    5852.0234    66.100341 
135460000    346.89203     397.6265   -5866.5827    5878.3684   -50.734476 
135464000    223.69085    156.63392   -5885.3351     5899.634    67.056935 
135468000    373.99733    366.67898   -5889.3025    5901.5801    7.3183519 
135472000    491.74102    314.26018   -5912.7526     5929.405    177.48084 
135476000    399.14976    266.88043   -5927.9705    5955.2622    132.26933 
135480000    395.71421    423.37093    -5957.896    5967.4349   -27.656711 
135484000    312.06895    273.52601   -5988.7315    5981.8423    38.542942 
135488000    322.65528    327.32268   -6013.8757    5988.8863   -4.6673948 
135492000    353.78313    437.05406   -6024.6164    6033.4023   -83.270934 
135496000    438.26098    233.98806   -6051.9427    6058.9075    204.27292 
135500000    239.18865    320.35002   -6053.0432    6085.9652   -81.161366 
135504000    337.17427    299.67784   -6103.0568    6113.4952    37.496424 
135508000    333.11112    465.96827   -6160.1094    6160.1421   -132.85715 
135512000    202.84394    408.27446   -6167.5573    6186.7256   -205.43052 
135516000    162.48134    232.00141   -6178.2823    6198.0711   -69.520068 
135520000    446.85055    220.13172   -6210.5243    6211.4525    226.71882 
135524000    317.51488    194.69194   -6226.7825    6237.9642    122.82294 
135528000    411.25021    499.35456    -6238.387    6252.8785    -88.10435 
135532000    608.53016    345.42263   -6249.6517    6259.6339    263.10753 
135536000    276.73711    380.50798    -6270.549    6281.1268   -103.77088 
135540000    389.41617    252.09409   -6278.4236    6306.9872    137.32208 
135544000    369.66336    434.03136   -6317.5916    6295.4401   -64.368001 
135548000    333.91008    307.41443   -6354.8934    6375.3966    26.495649 
135552000    360.17459    560.66795   -6384.7577    6379.3125   -200.49336 
135556000    354.46377    637.74578   -6413.5874    6420.8124     -283.282 
135560000    348.81953    229.50724   -6414.8506    6450.6263    119.31229 
135564000     377.0812    476.64847   -6439.4343    6435.8594   -99.567266 
135568000    275.62353     242.6622   -6456.6558    6468.2822    32.961329 
135572000     297.3943    375.93323   -6455.1961    6470.0127   -78.538925 
135576000    389.01319    371.35585   -6496.3968    6507.4121    17.657335 
135580000    483.64694    293.67559   -6549.3271     6547.535    189.97135 
135584000    428.41706    253.66188   -6601.3136    6598.2291    174.75519 
135588000    277.38522    415.01424   -6598.2252    6611.3349   -137.62901 
135592000    397.79127    412.42742   -6609.2654    6621.9644   -14.636147 
135596000    494.69783    291.45519   -6618.3825    6657.4957    203.24263 
135600000    298.45659    401.40285   -6642.9009    6655.7396   -102.94626 
135604000    643.09705    358.51031    -6688.479    6685.9301    284.58673 
135608000    492.93377    372.19433   -6709.1648      6720.15    120.73944 
135612000    480.88366      251.354   -6725.9776    6747.7107    229.52966 
135616000    532.43708    549.81306   -6743.1492    6750.1602   -17.375989 
135620000    645.09665     328.7957   -6795.6394    6781.9256    316.30094 
135624000    436.52889    250.89384   -6811.1113    6814.4829    185.63505 
135628000    507.39159    444.77585    -6837.282    6854.6423    62.615739 
135632000    361.75074    495.22969   -6861.0776    6871.8573   -133.47895 
135636000    324.98472    489.00618   -6914.9564    6914.4418   -164.02146 
135640000    415.84136    321.98645   -6935.6117    6939.9629    93.854902 
135644000    287.20406    416.45515   -6966.4578    6974.3611   -129.25109 
135648000    435.83564     313.9673   -7005.8958    7009.1243    121.86834 
135652000    254.93148    299.59748   -7005.7185    7042.9817      -44.666 
135656000    233.96176    419.04652   -7037.6729    7059.1307   -185.08476 
135660000    328.56361    263.80247   -7062.9675    7092.9907    64.761143 
135664000    317.70291     445.6316   -7087.7856     7101.181   -127.92869 
135668000    303.28665    530.66399   -7091.9865    7110.3157   -227.37734 
135672000    385.00479    106.85499   -7120.1121    7138.0087     278.1498 
135676000    286.94791    185.52295   -7117.1424    7146.4272    101.42496 
135680000    432.20037    190.11543   -7152.2493    7156.7826    242.08494 
135684000    721.53364    219.09075   -7177.2214    7198.9092    502.44289 
135688000    462.54054    280.53488    -7183.929    7210.1002    182.00566 
135692000    517.63312    278.87988   -7215.0807    7233.7094    238.75324 
135696000    309.23153    310.83446   -7232.2037    7238.9295   -1.6029293 
135700000    468.40655    349.57367   -7234.6251    7253.5413    118.83288 
135704000    340.82372    264.25416   -7268.8504    7259.9166    76.569568 
135708000    483.18345    401.54379    -7295.886    7291.4277    81.639657 
135712000    427.32647    330.48966    -7305.883    7325.4955    96.836817 
135716000    213.67682    152.70421   -7336.6158    7356.6213    60.972615 
135720000    385.55065    434.11268   -7361.4565    7379.4875   -48.562027 
135724000    325.63031    302.29063   -7372.1609    7394.1668    23.339672 
135728000    299.32143    287.59525   -7409.3172    7423.2165    11.726179 
135732000    365.83809    179.40846   -7422.3074    7433.8826    186.42962 
135736000    281.44864    283.62326   -7454.3932    7468.8988   -2.1746207 
135740000    364.12612    196.71047   -7487.4197    7478.7387    167.41565 
135744000    485.23263    287.91632   -7471.6189    7484.9557    197.31631 
135748000    302.49082    206.38799   -7479.7984    7500.2435    96.102839 
135752000     373.0718    272.29731   -7494.0019    7520.3318    100.77449 
135756000    227.55212    230.82255   -7513.6075     7525.569   -3.2704257 
135760000    202.86148    299.13402   -7540.7263    7562.2076   -96.272542 
135764000    382.98663    316.36836   -7560.8855    7591.8406    66.618266 
135768000    353.81747    363.62246   -7577.3788     7597.181   -9.8049884 
135772000    353.04504    556.50346   -7593.6723    7616.7112   -203.45842 
135776000    430.92321    371.26102   -7608.9573    7637.6998    59.662185 
135780000    428.59827    279.96356    -7627.113    7658.1558    148.63472 
135784000    235.61851    290.22787   -7653.6893    7683.9252   -54.609366 
135788000     284.6125    200.15414   -7655.0197    7696.7571    84.458356 
135792000    530.69148    342.03253   -7690.6773    7700.7594    188.65895 
135796000    283.04118    277.71615   -7745.9988    7767.1925    5.3250325 
135800000    239.08851    483.37965   -7779.4471    7787.1796   -244.29114 
135804000    310.18071    308.87829   -7762.1806    7781.5601    1.3024245 
135808000    261.24061    385.01424   -7777.1159     7771.178   -123.77363 
135812000    190.23121    282.00049   -7804.8383    7797.7314   -91.769277 
135816000    428.98544     174.7484   -7804.2464    7808.3014    254.23704 
135820000    415.55041    245.12968   -7804.2148    7821.2891    170.42074 
135824000     301.8045    372.86594   -7824.3249    7858.6823   -71.061438 
135828000    324.87012     248.9284   -7873.7069     7883.865    75.941728 
135832000    424.92609     182.6951   -7891.6197    7907.7718    242.23099 
135836000    296.32712    270.24876   -7902.8942    7917.6575    26.078363 
135840000    368.02753     470.0665   -7908.1271    7937.6261   -102.03898 
135844000    315.31147    206.52215   -7931.6783    7943.2898    108.78932 
135848000    318.96799    261.16716   -7933.3525    7980.4308    57.800824 
135852000    354.13153     365.4614   -7971.6652     7963.787   -11.329871 
135856000    438.94932    404.76591   -8001.3986    8007.5384    34.183414 
135860000    400.99249    303.96729   -8017.1377    8038.4204      97.0252 
135864000    274.93564    426.85625   -8044.1798     8059.676   -151.92061 
135868000    329.65117    381.17619   -8095.0129    8119.4857   -51.525023 
135872000    477.38261    421.64074   -8105.1157    8112.1031    55.741873 
135876000    534.81843    422.33403   -8146.2688    8153.5405     112.4844 
135880000    510.62342    166.11642   -8168.4722    8185.7773    344.50701 
135884000    401.28746    352.06507   -8172.7745    8173.6308    49.222395 
135888000    229.42367    368.65939   -8189.8544     8214.264   -139.23572 
135892000    237.56018    336.12876   -8200.7039    8227.3507   -98.568573 
135896000    383.21924    454.13318    -8217.945    8247.2765   -70.913936 
135900000    585.76389    146.42577   -8250.6442    8259.6281    439.33812 
135904000    378.95296    253.24974   -8263.5557    8290.0618    125.70322 
135908000    380.03839    181.76413   -8272.7829    8279.2389    198.27426 
135912000     274.8126    305.89475    -8276.383    8278.4934   -31.082146 
135916000    422.71419    376.17801   -8310.7943    8318.2616    46.536178 
135920000    506.13095     345.9982   -8319.9689    8329.0012    160.13275 
135924000    447.93575    334.81223    -8315.581    8328.6705    113.12353 
135928000    550.18175    405.27298   -8328.9782     8325.863    144.90876 
135932000    307.18357     425.7308    -8325.927    8342.4731   -118.54724 
135936000    457.00259    241.86446   -8339.0522    8359.3359    215.13814 
135940000    514.61337    488.04765    -8368.354    8377.5727     26.56572 
135944000    410.64742    209.59308   -8387.7274    8392.7951    201.05433 
135948000    622.26068     286.7124   -8410.3493    8407.6542    335.54829 
135952000    381.33238    345.88053   -8435.3387     8434.121    35.451843 
135956000    370.58007     228.2763   -8453.8277    8460.5372    142.30377 
135960000    264.49114    180.64677    -8477.967    8500.9281    83.844373 
135964000    247.02574    298.58415   -8512.0704    8528.9364   -51.558414 
135968000    433.86611    338.27519   -8552.6852    8556.8983    95.590922 
135972000    267.33214    357.64805   -8567.0436    8585.3232   -90.315915 
135976000    455.42289    198.79634   -8584.2895    8604.5806    256.62655 
135980000    100.00079    227.37675   -8581.8863    8620.1163   -127.37596 
135984000    306.22958    213.73816    -8586.487    8604.1804    92.491419 
135988000     626.0654    457.48712   -8614.9983    8628.4101    168.57828 
135992000    606.32704    385.09201   -8615.7492    8634.1869    221.23502 
135996000     263.0409    403.51735   -8616.7723    8632.3361   -140.47645 
136000000    230.39205    496.94386   -8622.5377    8664.0952   -266.55181 
136004000    476.79707    201.98981   -8642.9448    8648.1847    274.80725 
136008000    446.12373    229.03559    -8678.634    8671.5348    217.08814 
136012000    203.64744    335.79646   -8676.8124    8684.0963   -132.14902 
136016000    468.60374    308.37229   -8719.4892    8731.3283    160.23145 
136020000    339.25153    369.53281   -8710.0414    8738.9474   -30.281274 
136024000    237.83869    300.86843   -8746.3476    8757.1049   -63.029744 
136028000    374.71331    414.14875    -8737.782    8760.8832   -39.435439 
136032000    471.67084    184.57611   -8759.3131    8786.0872    287.09473 
136036000    448.52385     247.9367   -8747.4788    8792.0453    200.58715 
136040000      327.134    275.38618   -8770.1085    8804.5554    51.747817 
136044000     410.1196    206.53378   -8803.9248    8817.6646    203.58582 
136048000    483.24724    220.24934   -8817.3402    8852.5177     262.9979 
136052000    246.49577    461.02243    -8819.171    8821.3048   -214.52666 
136056000    523.88309    336.41953   -8838.9121    8849.4675    187.46357 
136060000    238.16885    428.13429    -8832.009    8854.5048   -189.96544 
Loop time of 261.931 on 1 procs for 1600000 steps with 196 atoms

Performance: 659.717 ns/day, 0.036 hours/ns, 6108.487 timesteps/s
99.9% CPU use with 1 MPI tasks x no OpenMP threads

MPI task timing breakdown:
Section |  min time  |  avg time  |  max time  |%varavg| %total
---------------------------------------------------------------
Pair    | 79.568     | 79.568     | 79.568     |   0.0 | 30.38
Bond    | 129.41     | 129.41     | 129.41     |   0.0 | 49.41
Neigh   | 1.1867     | 1.1867     | 1.1867     |   0.0 |  0.45
Comm    | 0.46353    | 0.46353    | 0.46353    |   0.0 |  0.18
Output  | 0.0041544  | 0.0041544  | 0.0041544  |   0.0 |  0.00
Modify  | 49.816     | 49.816     | 49.816     |   0.0 | 19.02
Other   |            | 1.484      |            |       |  0.57

Nlocal:    196 ave 196 max 196 min
Histogram: 1 0 0 0 0 0 0 0 0 0
Nghost:    0 ave 0 max 0 min
Histogram: 1 0 0 0 0 0 0 0 0 0
Neighs:    3868 ave 3868 max 3868 min
Histogram: 1 0 0 0 0 0 0 0 0 0

Total # of neighbors = 3868
Ave neighs/atom = 19.7347
Ave special neighs/atom = 5.87755
Neighbor list builds = 5539
Dangerous builds = 0
unfix 1


# PRODUCTION

fix             1 all nve
fix             hot all langevin ${TThi} ${TThi}  50.0 52804  tally yes
fix             hot all langevin 320 ${TThi}  50.0 52804  tally yes
fix             hot all langevin 320 320  50.0 52804  tally yes
fix             cold all langevin ${TTlo} ${TTlo} 50.0 297859 tally yes
fix             cold all langevin 280 ${TTlo} 50.0 297859 tally yes
fix             cold all langevin 280 280 50.0 297859 tally yes
fix_modify      hot temp Thot
fix_modify      cold temp Tcold


variable        tdiff equal c_Thot-c_Tcold
thermo          4000

dump gigo all atom 40000 dump.cords_xyz.dat
dump_modify gigo scale no
dump vfgigo all custom 4000 dump.velo.dat id vx vy vz fx fy fz

# thermal conductivity calculation
# # reset langevin thermostats to zero energy accumulation
#
compute         ke all ke/atom
variable        temp atom c_ke/1.5/0.0019872

fix             ave all ave/time 100 40 4000 v_tdiff ave running
thermo_style    custom step temp c_Thot c_Tcold f_hot f_cold v_tdiff f_ave

#compute         layers all chunk/atom bin/1d z lower 0.05 units reduced
compute         layers all chunk/atom bin/1d z lower ${dz} units box
compute         layers all chunk/atom bin/1d z lower 4.1310649555631 units box
fix             2 all ave/chunk  100 40 4000 layers v_temp file profile.langevin

dump mydump2 all xyz 40000 prod-coord.xyz
dump_modify mydump2 element C S S

run             32000000
Per MPI rank memory allocation (min/avg/max) = 11.82 | 11.82 | 11.82 Mbytes
Step Temp c_Thot c_Tcold f_hot f_cold v_tdiff f_ave 
136060000    281.84478    238.16885    428.13429           -0           -0   -189.96544            0 
136064000     263.1227    439.33966    248.26167   -41.793685    34.225759    191.07799    -3.142626 
136068000    282.62805    385.70532    422.22899   -45.159162    46.214213   -36.523671     18.09747 
136072000    320.16836     560.0905    329.34692   -86.652757    61.427516    230.74358    13.434921 
136076000     293.7123    344.43661    407.92782   -84.681295    76.580423   -63.491204    17.034043 
136080000     281.5518    337.87998    364.05347   -110.52791    111.13175   -26.173484    17.845889 
136084000     279.2511    304.79226    328.10742   -135.11791    141.28293   -23.315162    22.679488 
136088000    262.46144    329.09447    224.12061   -159.58041     159.0868    104.97386    21.340784 
136092000    279.12226    200.48346     449.3551   -187.08395    176.85616   -248.87163    25.326349 
136096000    261.55574    229.62426    441.70665   -206.89602     204.5202   -212.08239    26.772501 
136100000    281.37677    395.13671    427.92751   -228.48786    233.19282   -32.790794    27.046407 
136104000    282.09254    457.65045    300.50785   -266.64059    265.43443    157.14259     28.77013 
136108000    288.35108    355.03467    408.00234   -289.68226    278.79514   -52.967666    27.975353 
136112000    282.80924    267.90552    334.38513   -300.35884    309.99622    -66.47961    27.458063 
136116000    288.17855    582.48767    260.37829   -338.24056    320.48458    322.10938    29.097679 
136120000    240.07205    241.75619    259.50062    -344.9123    381.52077   -17.744439    28.448665 
136124000    273.52174    227.71377    433.52825   -364.33636    393.13442   -205.81448    29.086915 
136128000    287.00025    320.62499    283.46885   -412.80022    389.70732    37.156135    29.290484 
136132000    311.79214    310.63212    289.20224   -420.08616    397.85117    21.429886    30.407097 
136136000    309.08116    218.43259    248.79459   -449.39597    425.65674   -30.362003     30.27306 
136140000    309.42463    256.69893    500.59721   -463.63817    442.31238   -243.89827    29.082076 
136144000    279.46322    366.21764    264.50614    -502.6232    488.38976     101.7115    28.237732 
136148000    278.29957    267.42478    340.60234   -506.60937    508.63801   -73.177564    28.514045 
136152000    319.13955    302.72641    365.78023   -529.40148    497.36313   -63.053815    27.876513 
136156000    280.97438    408.94816    266.44141   -521.37082    502.51279    142.50675    28.545435 
136160000    304.50856    460.59678    275.57843   -538.26723    516.04735    185.01835    29.200297 
136164000    292.15518    213.31506    512.18328    -534.5945    534.43426   -298.86823    28.964885 
136168000    291.45253    570.01995    282.30308   -569.30947    551.95393    287.71688    29.135102 
136172000    322.46579     373.6663    275.47422   -566.34831    540.17168    98.192081    29.647944 
136176000    269.98209    375.13589    324.03619   -561.08216    557.89354     51.09969    30.100349 
136180000    277.59537    186.90459    264.08982   -566.71985    585.15808   -77.185227    29.954296 
136184000    296.39218    388.58004    414.43978   -607.62622    592.52768   -25.859739    30.140905 
136188000     291.0274    435.97379    365.28538   -631.07945    627.39354     70.68841      31.7943 
136192000    265.05755    515.25455    354.01799   -680.48142     670.3822    161.23656    31.374748 
136196000    278.72963    224.60947    337.48689   -679.66474    690.72402   -112.87742    31.149674 
136200000    297.02367    561.41098    398.93061   -709.05375    704.26194    162.48037    32.276536 
136204000    267.25836    276.55892    222.89747   -724.97146    728.03325    53.661445    32.057037 
136208000    308.61575    222.06295    369.59362    -740.6464    725.95096   -147.53068    32.177587 
136212000    307.46603    174.50466      278.323    -773.8692    741.71545   -103.81834    32.824942 
136216000    243.30984    284.27299    225.21668   -778.39169    799.80513    59.056307    33.621874 
136220000    271.96331    330.07286    162.04528   -787.36056    805.80853    168.02758    32.882023 
136224000    290.05655     311.2471    369.91756   -835.00729    822.69561   -58.670464    32.464038 
136228000    277.14335    392.34456    255.39581   -873.08734     864.0896    136.94875    32.069294 
136232000    278.81969    354.43544    310.13395   -907.21137    881.78332    44.301488    32.367858 
136236000    278.70322    489.71301    271.31282   -917.98942     920.3842    218.40019    33.422498 
136240000    282.64877    273.36577    294.34319   -932.36803    944.86746   -20.977424     33.54403 
136244000    279.12794    397.17425    224.76089   -969.94699    967.11834    172.41336    33.577582 
136248000    293.27173    424.13286    427.29469   -1010.2754    976.14578   -3.1618302    33.695676 
136252000    284.58469     386.7884    143.22214   -1017.6448     1015.973    243.56625    33.542097 
136256000    338.68245    630.17817    395.61854   -1073.3271    1037.5813    234.55963    33.418952 
136260000     293.5929    564.84519    247.22438   -1090.2106    1065.6683     317.6208    33.045894 
136264000    284.59774    317.88772    336.29413   -1062.3192    1059.6019   -18.406408    33.000071 
136268000    274.52164     295.7424     353.9582   -1077.8237     1075.577   -58.215792    33.000465 
136272000    250.15106    317.15107     171.5454   -1082.4344    1102.1596    145.60567    33.769262 
136276000     278.0347    257.69136    371.86782   -1115.1779    1112.5815   -114.17646    33.699812 
136280000     302.4573    565.94154    250.94767   -1159.3609    1138.3051    314.99387    34.316384 
136284000    271.94535    361.36033    396.77262   -1175.1895    1164.6748   -35.412292    33.899037 
136288000    258.14814    241.81934    391.32049   -1176.6374      1180.08   -149.50115    33.711404 
136292000    287.45848    400.24264    446.71374   -1231.0087    1204.3675   -46.471101    33.357036 
136296000    290.30442    375.82091    450.00826   -1237.3028    1230.1834   -74.187351    33.361321 
136300000    326.57857    333.73032     354.7381   -1298.3168    1258.5907   -21.007776    33.450499 
136304000    313.73496    332.30358     430.2722    -1312.178     1291.893   -97.968618    33.200925 
136308000    278.45472    272.34933    340.86368   -1349.7353    1348.1512   -68.514348    33.082992 
136312000    277.18733    370.49403    518.15111   -1356.2214    1365.9815   -147.65708    32.448311 
136316000    289.28231    477.36877    419.90888   -1376.8166    1374.8207    57.459889    32.268522 
136320000    279.49919    467.75811    189.57388   -1392.3384    1400.2779    278.18423    32.777873 
136324000    263.71402     365.6733    384.57713   -1420.8827    1418.1193   -18.903826     32.61446 
136328000    270.59015    302.25501    240.46773   -1441.4955    1429.8958    61.787277    32.782011 
136332000    305.73509    480.38702    263.99889   -1457.5607     1436.832    216.38813    33.189106 
136336000    308.75183    405.16974    318.79511   -1499.0449     1472.079    86.374636    33.100626 
136340000    301.92497     439.4384    219.37052   -1511.9608    1500.6146    220.06788    32.729384 
136344000    272.20191    208.06549    346.71008   -1522.6777    1527.7193   -138.64458     32.71951 
136348000    264.71597    360.57072    217.60295   -1548.1959    1562.8904    142.96777     32.23651 
136352000    308.22273    546.37038    300.20919   -1580.0125    1557.3447    246.16118    32.744927 
136356000    285.82529    287.36542    343.17129   -1586.0488     1583.399   -55.805871    32.808294 
136360000    283.80911     345.0289     319.1693   -1608.5883    1603.1575    25.859597    32.764537 
136364000    274.46778    380.65728    387.65479   -1629.4071    1643.9519   -6.9975134    33.507975 
136368000    269.08634     509.3864    232.16917   -1641.9241    1646.7299    277.21722    33.591137 
136372000     259.5909    290.30006    280.97571    -1668.415    1678.8011    9.3243515    33.754159 
136376000    277.90888    297.91266    446.09982    -1691.246    1684.1629   -148.18716    33.329599 
136380000    270.73459    337.92766    365.82743   -1707.1811    1713.7605    -27.89977    33.575068 
136384000    273.32848    329.36492    307.60459   -1724.3977    1715.3946    21.760329    33.675462 
136388000    296.21929     241.4894    453.67614   -1753.6059    1744.2768   -212.18675    33.413491 
136392000    257.77107    310.35991    221.33182    -1773.571    1767.7349    89.028095     33.61267 
136396000    308.40592    402.19281     255.7183   -1797.9911    1772.2303     146.4745    33.666283 
136400000    284.19898    455.33918    212.64711   -1796.2548    1800.7119    242.69207    33.382081 
136404000    306.04676    368.41617    512.41737   -1832.3068    1813.5679    -144.0012    33.712942 
136408000    277.38411    213.97826    465.39357   -1867.1894    1859.3094   -251.41531    33.825021 
136412000     321.9081    429.85468    369.19122   -1910.6351     1873.088    60.663456    33.944218 
136416000    288.79455    389.07855    435.55137   -1921.0749    1904.8043   -46.472815    33.525409 
136420000    275.62262     374.0286     238.8786   -1947.1142    1957.3761       135.15    33.215538 
136424000    274.62349    257.26103    290.64716    -1977.223    1970.8295   -33.386133    33.289991 
136428000    281.05359    277.24238     235.8725   -1999.3697    1986.9555     41.36988    33.143459 
136432000    301.49848    327.93588    208.38244   -2044.2812    2033.1249    119.55344    33.712975 
136436000    270.00851    219.48687    201.99738   -2035.7155     2040.977    17.489486    33.741979 
136440000    298.37022    217.32728    179.76595   -2056.9108    2027.9573    37.561324    33.855249 
136444000    297.90733    372.18969    218.43853   -2074.7776    2039.5339    153.75116    33.892985 
136448000     320.0144    317.75179    317.99639   -2068.5382    2049.5937  -0.24460068    34.200678 
136452000     297.8015    293.58433    339.74834   -2082.0157    2074.4075   -46.164008    34.154465 
136456000    272.68676    320.05253    431.12569   -2098.7027    2105.4233   -111.07316    33.953888 
136460000    282.53816    448.20635    443.24792   -2138.4063    2139.8422    4.9584273    33.716827 
136464000    249.27115    289.98655     254.7453   -2184.5774    2204.0114    35.241244    33.917052 
136468000    300.01767    286.79371    257.73975   -2217.0649    2222.4863    29.053956     33.65156 
136472000    287.91948     506.3034    392.02016   -2231.4102     2214.402    114.28323    33.528339 
136476000    285.39505    405.33139    251.61918   -2241.6603    2237.1981    153.71222    33.431224 
136480000    298.86252    307.20398    344.82619   -2271.0457    2250.8919   -37.622204    33.630797 
136484000    292.81767    284.08386    268.20751    -2261.795    2257.9038    15.876349    33.740602 
136488000    262.64349    297.75438    348.97155   -2259.9405    2266.8243   -51.217168    33.833789 
136492000    292.33792    564.44484    252.22433   -2315.8114    2305.2899     312.2205    33.965292 
136496000    295.06331    276.99212    450.18446   -2323.6523    2320.0932   -173.19234    33.773121 
136500000    291.01479    326.28795    387.49236   -2356.4832    2334.4355   -61.204411    33.530131 
136504000    275.09351    166.31097    320.22415   -2367.1166    2368.2241   -153.91317    33.428248 
136508000    238.30506    324.07914    373.71404   -2379.6463    2412.0762   -49.634902    33.560085 
136512000    248.50226    351.07429    241.11478   -2396.4083    2410.3191    109.95951    33.564687 
136516000    249.67135     290.5184    206.87957   -2411.9504    2422.0203    83.638825    33.701931 
136520000    295.10764    316.16453    227.95673   -2442.0252    2413.6853    88.207806    33.598318 
136524000    307.21001     251.5073    325.17669     -2452.25    2426.2535   -73.669388    33.176162 
136528000    280.70697    321.47068    425.83432   -2448.1524    2454.0822   -104.36364    33.591499 
136532000    268.77531    238.97462    412.36617   -2453.1613    2453.5033   -173.39155    33.562629 
136536000    282.04486    522.98296    596.78229   -2486.3236    2481.0224   -73.799328    33.673791 
136540000    295.95597    475.18855    451.12679   -2511.6457    2496.0157    24.061768     33.71343 
136544000    288.75065    227.58572    380.15379   -2537.0038    2529.1932   -152.56806    33.421988 
136548000    257.50911    311.30663    255.87287   -2572.1211    2578.8222    55.433761     33.44938 
136552000    281.63696    369.78384    342.64461   -2579.2799    2589.7348    27.139228    33.362299 
136556000    289.60683    380.26689    198.58763   -2622.4694    2621.2292    181.67927    33.244856 
136560000    264.38329    459.04319    307.76482   -2628.8673    2629.2058    151.27837    33.559114 
136564000    290.34284    504.78682    341.11381   -2679.1574    2652.6648    163.67301    33.676799 
136568000    286.04999    434.56235    461.45957   -2682.9447    2678.2211   -26.897218    33.487777 
136572000    280.85308    294.93744    212.17933   -2695.5836    2707.2974     82.75811    33.213865 
136576000    302.55659    392.17419    262.15931   -2753.2513    2736.6215    130.01487    33.482878 
136580000     299.7672    335.99872    338.29391   -2762.8022     2753.363   -2.2951838    33.336521 
136584000    301.94085    434.01638    331.23157   -2773.2579    2769.2517    102.78481    33.261088 
136588000    281.45737    276.11423    227.29703   -2803.5997    2788.5314      48.8172    33.440153 
136592000    288.56232    287.44048    275.75347   -2821.3003    2824.0103    11.687007    33.145337 
136596000    258.90373     455.7109    122.86471   -2827.0458    2857.2278    332.84618    33.467451 
136600000     277.2795    300.79493    250.75841   -2846.5802    2859.1929    50.036527    33.479498 
136604000    322.10743    256.54482    462.50256   -2889.5897    2865.0323   -205.95774    33.627992 
136608000    279.09689    302.26641    375.98955    -2930.404    2920.7484   -73.723139    33.525962 
136612000    296.65586    270.05313    317.42254   -2953.2449    2955.1309    -47.36941    33.330654 
136616000    260.60435    300.49493    331.69858   -2962.2148    2971.3539    -31.20365    33.303536 
136620000    254.28786    358.03288    313.12267   -2982.9693    2981.4722    44.910206    33.299922 
136624000    266.09395    279.98105    346.32969   -2977.2558    2982.3731   -66.348642    33.234073 
136628000    275.75655    218.16117    313.45623   -3002.4661    2997.4636   -95.295061    33.571171 
136632000    289.51369    394.70337    348.92705   -3042.9741    3024.8619    45.776326    33.194458 
136636000    293.57842    373.95342     207.8826   -3058.5527    3040.0361    166.07082    33.255862 
136640000    292.50907    545.07918     264.4059   -3054.5892    3067.4094    280.67328     33.27984 
136644000    256.77188     517.9328    240.45951   -3086.8687    3089.8842     277.4733    33.290278 
136648000    259.75422    307.48458    223.58067   -3113.4187    3137.0454    83.903908    33.447034 
136652000      297.503    463.64961    402.21114   -3138.6452    3137.3175    61.438468    33.365924 
136656000     287.1345     425.7345    441.00266   -3164.4566    3142.5087   -15.268163    33.379909 
136660000    275.45493    321.41502    210.99564    -3201.054    3193.1745    110.41938    33.624314 
136664000    265.24695     287.5883    301.33472   -3217.4713    3218.8873   -13.746424    33.685845 
136668000    292.48532    280.14837    343.92072   -3266.6148    3253.4613   -63.772347     33.96936 
136672000    315.45523    323.16566    289.12721   -3281.5647     3268.435    34.038451    33.979479 
136676000    289.97388    300.02638    375.36096   -3304.9165    3305.7194   -75.334575    34.092233 
136680000    292.31384    187.29694    236.46813   -3325.1744    3319.7976   -49.171191    34.003513 
136684000    263.24585    530.19102    448.84006   -3322.3717    3331.6424    81.350963    34.026502 
136688000    259.00189    251.99378    246.53931    -3344.307    3340.9677    5.4544724     33.89764 
136692000    285.13566     458.3861    363.89169   -3375.2798    3363.5087    94.494408     33.83362 
136696000    261.01905    245.09971    302.07778   -3400.2637    3412.3056   -56.978071    33.915881 
136700000    260.10295      395.002     287.3216   -3448.0668    3458.6292     107.6804    33.951088 
136704000    277.31669    258.78944    231.40251   -3448.0869    3447.6481    27.386929     34.11451 
136708000    275.41906    493.20686    364.48569   -3462.7532     3458.879    128.72117    34.074278 
136712000    280.07466    228.23773    378.98811   -3489.7058    3474.1206   -150.75037     34.05497 
136716000    283.06263    361.94102    309.38031   -3486.3442    3492.2386    52.560715    33.918284 
136720000    286.76569    432.93816    509.83836   -3518.0237    3522.2377   -76.900202    33.934153 
136724000    289.97373    264.33441    240.65608   -3572.5302    3577.9616    23.678328    33.953795 
136728000    275.28986    357.74986    483.80689   -3580.8258    3582.5869   -126.05703    33.914604 
136732000    265.66912    254.20131    459.95763     -3618.28     3612.352   -205.75631    33.722115 
136736000    296.45799    387.37424    203.00531   -3628.2392    3616.3799    184.36893    33.638058 
136740000    290.10963    481.10097    437.30633   -3638.7185    3620.6131    43.794644    33.860546 
136744000     302.6346      527.506    284.94483   -3682.0794    3655.1263    242.56116    33.887178 
136748000    267.71073    199.33642    381.07145   -3704.3223    3692.8764   -181.73503    33.965852 
136752000    334.56918    562.49142    278.11741   -3751.7869     3695.589    284.37401    34.159679 
136756000    298.78846    343.11079    413.86314   -3737.0457    3716.7042   -70.752353    34.134771 
136760000    297.06332     456.7398    337.97846   -3757.6635    3757.7569    118.76135    34.134063 
136764000    306.17358    467.13322    319.95004   -3794.4566    3790.2126    147.18317    33.994004 
136768000    288.07149    300.38167    291.68628   -3836.1692    3836.3098    8.6953871    33.865101 
136772000    284.50382     209.1398    612.44384   -3855.6687     3854.986   -403.30405    33.802447 
136776000    305.45038    574.04902    394.06251   -3886.1926    3883.0006    179.98651    33.633236 
136780000    315.93251    351.14873    313.51298   -3916.3494     3893.368     37.63575    33.706131 
136784000     289.4337    362.82785    335.79796   -3913.2534    3904.8215     27.02989    33.876759 
136788000    285.13764    341.46226    466.09409   -3931.1617    3913.7883   -124.63184    33.807254 
136792000    289.20758    290.12272    433.53427   -3922.0824     3935.404   -143.41155    33.864232 
136796000    253.92242    216.48382    438.32753   -3962.2088    3973.7284   -221.84371    33.745553 
136800000    272.70186    438.21657    195.73239   -3989.5902    4002.0389    242.48417    33.821565 
136804000    289.63612    371.16537    506.30221   -3995.2657     3985.665   -135.13683     33.92182 
136808000    293.92383     374.7408    364.12193   -4017.9737    4013.7209    10.618873    33.823794 
136812000     297.6538    319.66279    351.94179    -4062.539    4036.5621   -32.279003    33.754297 
136816000    317.39186    386.66311    347.50673   -4088.2375    4058.1973    39.156376    33.822834 
136820000    273.91557    412.52617    397.31175   -4081.4102    4087.8391    15.214413    33.619138 
136824000    282.05449    206.85057    485.86682   -4106.0144    4111.5523   -279.01625    33.632116 
136828000    286.78425    192.56684     403.6086    -4154.852    4139.9765   -211.04176    33.455352 
136832000    302.84134    469.79279    418.56683   -4181.9096    4170.5966    51.225959    33.396304 
136836000    273.47009    198.28571    324.88619   -4189.6816    4212.2939   -126.60048    33.319451 
136840000    281.75732     482.0076     240.0608   -4232.2273    4233.6297     241.9468    33.264705 
136844000    260.78144    263.94245    301.87943   -4237.2844    4261.1952   -37.936977    33.124294 
136848000    302.99369    445.68896    409.60879   -4268.5594    4249.6884    36.080173    33.141062 
136852000    293.10527    375.41237    227.44231   -4283.2778    4273.6054    147.97006    33.188781 
136856000    285.94455    302.60994    287.18053   -4301.0089    4287.2875    15.429407    33.199562 
136860000    307.38619     403.4301    263.93179   -4314.0416    4297.1119    139.49831    33.079791 
136864000    297.83093    485.95547    391.11919   -4337.7164     4322.614    94.836284    33.143424 
136868000    264.77099    365.34261    315.07199   -4339.6482    4334.9628    50.270627    33.236176 
136872000    279.44079    322.18008    287.00029   -4351.8731    4336.6158    35.179792    33.118678 
136876000    306.64773    196.22582    264.42976   -4378.3482      4360.82   -68.203949    33.173816 
136880000    278.41091    276.72473    425.16078    -4420.028     4405.183   -148.43605    33.025985 
136884000    269.68813    415.28379     303.4726   -4433.3996    4434.5967    111.81119    33.060314 
136888000    293.53621     238.0711    244.08568   -4434.3056    4431.2673   -6.0145759    33.046004 
136892000    285.42232    463.21907    290.54587   -4479.0451     4481.836     172.6732    33.116955 
136896000    288.64865     403.4341    244.68937   -4497.6297    4504.7734    158.74473    33.198711 
136900000    265.38861    259.11625    167.95653   -4497.3382    4516.8063    91.159729    33.417896 
136904000    279.31109    370.22808    238.72666   -4533.6985     4556.689    131.50142    33.559807 
136908000    295.65425    380.77602    491.79823   -4560.6439    4541.5995   -111.02222       33.541 
136912000    284.06643    372.47896    377.47727   -4595.4924     4592.711    -4.998303    33.521685 
136916000    264.79326    323.82754    197.14294   -4589.9643    4621.4823    126.68459    33.627937 
136920000    277.82576    530.75147    376.71128   -4622.5941    4630.8974    154.04018    33.657562 
136924000    278.50816    447.40833    250.21379   -4662.4976    4657.4388    197.19454    33.693648 
136928000    256.69025    363.23149    235.46562   -4670.0804    4690.9264    127.76587    33.711334 
136932000    308.10123    433.83438    358.72271   -4717.8584    4696.9436    75.111666    33.812047 
136936000    314.21724    342.08766    557.74666   -4746.2374    4725.4169     -215.659    33.824721 
136940000     299.2571    440.09589    375.09145   -4758.4803    4767.6059    65.004438    33.915209 
136944000    305.95107    327.20328    227.24957   -4801.4628    4790.1192    99.953706    34.072247 
136948000    287.57324    600.58246    345.98886   -4850.9907    4844.7128    254.59361    33.985238 
136952000    299.63273    369.47237    373.96923   -4877.0802    4885.4488   -4.4968575     34.01191 
136956000    271.83956    307.88471    274.07876   -4906.6224    4898.9889    33.805948    34.072448 
136960000    263.73326    417.55427    339.87128   -4905.5877    4903.6656    77.682993    34.285606 
136964000    281.15402    377.99199    433.31864   -4930.9386    4935.8839   -55.326657    34.137855 
136968000    290.69775    346.29343    312.82193   -4968.5482    4962.4592    33.471499    34.182606 
136972000     279.1725    387.70134    298.61631   -4972.9398    4979.9076    89.085033    34.361078 
136976000      266.904     417.0641    372.86815   -4993.6343    5001.5667    44.195948    34.413716 
136980000    293.72709    291.61652    253.83631   -5023.7023    5024.6057    37.780206    34.376125 
136984000     292.0536    218.37521    300.45854   -5050.7017    5055.9952   -82.083328     34.37103 
136988000    262.10464    222.63314    363.05628   -5066.4739    5084.7096   -140.42315    34.245788 
136992000    280.72101    439.35665    396.96875   -5094.1926     5101.709    42.387902    34.145782 
136996000    268.43645    248.92713    198.77171   -5137.9254    5148.2068    50.155417    34.111332 
137000000    300.06142    432.17734    374.77833   -5179.1242    5160.6282    57.399005    34.008323 
137004000    270.57466    173.53773    261.83716   -5176.7675    5186.4872   -88.299431    33.881049 
137008000    286.81828    306.91956    202.05248   -5208.9736    5218.8625    104.86708    34.021907 
137012000    294.27385    272.48651    173.33025   -5262.5716    5247.5945    99.156257    33.918177 
137016000    268.19012    342.55122    292.15418     -5296.41    5294.0335    50.397037    33.953582 
137020000    259.43999     491.7859    294.51542   -5316.4642    5329.3731    197.27047    33.921763 
137024000    268.17487    441.02456    323.31961   -5348.5928    5350.5365    117.70495    34.097698 
137028000    268.48148     272.9318    303.62822   -5391.7785    5403.1343   -30.696421    34.008329 
137032000    286.37757    431.73685    204.70492   -5437.2208      5423.53    227.03193    33.955614 
137036000    282.47012    264.29308    365.61898   -5467.8043    5464.9348    -101.3259    33.882151 
137040000    252.30281    403.39409    264.67327   -5482.0925    5493.9602    138.72082    34.005503 
137044000    252.31441    247.21185    196.53072   -5517.4644    5536.5449    50.681129    34.006503 
137048000    243.89481    256.41493    275.52693   -5522.4874    5537.6207   -19.112004    34.059862 
137052000    265.50135    328.12147    348.95256   -5550.2441    5560.3567   -20.831099    33.999817 
137056000    268.19137    245.26321    229.24934   -5595.5349    5580.1405    16.013868    34.170087 
137060000     266.6632    257.30227    263.27309   -5613.7866       5623.9   -5.9708203    34.243652 
137064000    289.73445     458.0931    258.60707   -5613.3474    5630.3419    199.48603     34.12573 
137068000    272.60559    445.43746    402.08351   -5610.7889    5633.1837    43.353947      34.0627 
137072000    261.75328    249.86543    406.82388    -5637.005    5646.6177   -156.95845    33.994556 
137076000    283.22653    300.18675    246.77678   -5643.3493    5662.1674    53.409975      34.0138 
137080000    293.21528    227.44364    206.92678   -5690.3339    5677.1668    20.516858    33.995367 
137084000    265.04092      249.027      391.387   -5695.9463    5712.3267   -142.36001    33.992108 
137088000    302.60253    688.45454    435.91304    -5742.568    5722.5135     252.5415    34.318542 
137092000    295.30947    440.17506    279.74318   -5777.1021    5770.7815    160.43188    34.302158 
137096000    299.38656    241.40789    389.98141   -5790.7663    5795.3056   -148.57353    34.314074 
137100000    274.88957    399.96521    294.49622   -5824.4785    5818.5588    105.46898    34.412913 
137104000    264.69976    303.85033    337.63594   -5874.9962    5896.3043   -33.785614    34.371522 
137108000    261.65378    409.40142    304.99941    -5931.407    5938.5444    104.40201    34.343908 
137112000     271.6961    229.40761    276.54714   -5948.8561    5972.2784   -47.139523    34.218632 
137116000     281.1591    409.92317    245.86595   -5997.2736     6006.554    164.05723    34.288946 
137120000    283.34531    375.13692    310.29427   -6017.4183    6020.6327    64.842652     34.19945 
137124000    267.19382    314.29888     261.0936   -6041.7902    6032.4668    53.205284    34.121576 
137128000    262.67347    117.51708    385.07081   -6053.4263    6038.1138   -267.55373    33.967367 
137132000    291.84063    407.89406    385.12803   -6053.7913    6054.7124    22.766034    33.969184 
137136000    314.35626    412.95262    413.08307   -6079.6118    6067.7924  -0.13045477    33.955083 
137140000    307.63187    261.74788    294.22997   -6121.7485    6095.4172   -32.482095    33.986726 
137144000    275.79299    433.29051    426.64564    -6109.949    6127.0731    6.6448682    33.966493 
137148000    297.42068    402.91382    274.93476   -6153.3505     6163.985    127.97905     34.07289 
137152000    286.38601    242.47927    507.98197    -6180.208    6165.5646    -265.5027     34.02157 
137156000    283.82316    308.46399    300.68665   -6190.9898    6193.8191    7.7773386    34.191553 
137160000    290.77907    346.67607    248.77575   -6198.5713    6203.4894    97.900319    34.186683 
137164000    297.47939    234.07545    414.56846   -6235.1434    6222.7159   -180.49301    34.021735 
137168000    276.01863    364.96654    414.08669   -6264.9979    6254.1181   -49.120149    34.019226 
137172000    273.96194    352.54783    230.38834   -6289.7029    6289.8055    122.15949    34.047272 
137176000    287.44112    368.62677    289.76971   -6317.2889     6328.882    78.857059    34.290446 
137180000    286.85406    440.55065    311.75723   -6340.1853    6333.7156    128.79342    34.408521 
137184000    279.10504    318.29566     303.7069   -6338.7523    6336.8815    14.588769    34.452205 
137188000    274.50912    303.95608    369.02718    -6339.403    6351.1538   -65.071097    34.461992 
137192000    294.64813    222.26388    258.32214    -6353.257    6362.2133   -36.058255    34.508462 
137196000    255.30508     352.7039    284.06701   -6367.6309    6384.9275    68.636882    34.450852 
137200000    297.61089    308.39773      408.834   -6397.3681    6390.0218   -100.43627    34.335292 
137204000    304.53517    573.24308    212.47304   -6420.1677    6413.0911    360.77005    34.425129 
137208000    275.75316    275.90309     347.8799    -6447.867    6437.2394   -71.976812    34.407795 
137212000    257.93729     271.2916    279.85271   -6470.1636     6455.245   -8.5611014    34.429768 
137216000    279.83733    238.12544    178.66638   -6482.3096    6480.2025    59.459055    34.282521 
137220000    300.45311    497.18091    593.04449   -6493.0228     6492.131   -95.863578    34.425647 
137224000    286.88414     213.6559    241.41821    -6520.201    6499.9777   -27.762317    34.326644 
137228000    327.02016    350.65506    445.48649   -6547.5495     6514.016   -94.831426    34.262805 
137232000    295.97379     414.9387    380.50948   -6563.6017    6554.0387    34.429215     34.28704 
137236000    276.28377    196.10886    354.67505    -6554.675    6567.9239   -158.56619    34.309219 
137240000    246.88207    248.80421    351.78392   -6582.2431    6604.2215   -102.97971    34.285605 
137244000    290.18983    316.65404    424.97507   -6628.9261    6634.8953   -108.32103    34.422338 
137248000    293.44164    511.06964    273.67272   -6668.3121    6643.7407    237.39692    34.419847 
137252000    316.67286    343.82694    387.53493   -6697.3827    6665.2671   -43.707987    34.540106 
137256000    269.07729    389.52543    180.70728    -6692.155    6682.9527    208.81815    34.479787 
137260000    317.25614     504.1787    380.51193   -6718.0382    6700.2777    123.66677     34.53231 
137264000    312.67898    315.52929    157.81779   -6737.3017    6713.2466     157.7115    34.644297 
137268000    269.61721    284.93265    314.63937   -6745.4154    6756.8359   -29.706719    34.567187 
137272000    269.14574    320.48042    375.39991   -6745.1254    6764.3307   -54.919488    34.588176 
137276000    303.00131    394.68411    280.33358   -6789.7473    6783.9037    114.35054    34.549888 
137280000    292.73546    327.81727    331.86686   -6803.9462    6809.5719   -4.0495869    34.514431 
137284000    230.28258    268.62555    287.06806   -6826.5445    6841.5557   -18.442505    34.373325 
137288000    280.63651    377.07999    148.08245   -6849.8573    6858.8168    228.99755    34.414744 
137292000    306.76032    456.12159    235.64011   -6884.0467    6872.2442    220.48147    34.332887 
137296000    323.01607    441.87538    353.90273   -6915.0296    6890.5053    87.972652    34.277942 
137300000    279.49652    286.69475    224.55544     -6931.83    6937.4659    62.139315    34.232377 
137304000    297.30217    176.65217       533.01   -6978.8268     6977.318   -356.35783    34.241221 
137308000    269.32628    296.07256    277.55076    -7014.211    7018.8285    18.521804    34.194333 
137312000    284.75734    498.11463    307.11684   -7047.0134    7050.6896    190.99779    34.245549 
137316000    291.26738    289.07822    379.85004   -7068.5199     7068.173   -90.771825    34.262086 
137320000    297.90136    324.55455    515.17253    -7077.948    7063.4259   -190.61798    34.281894 
137324000    274.70369     225.4209    337.81318   -7101.9832    7104.5979   -112.39228    34.213983 
137328000    301.45359    268.80532    404.76806   -7145.7919    7126.8937   -135.96274    34.257364 
137332000    279.23269    458.60933    418.49977   -7139.0235    7148.8048     40.10956    34.128819 
137336000    287.03205    524.80872    712.68859   -7169.9462    7172.3992   -187.87987    34.076609 
137340000    272.77461     355.8429    506.56997   -7203.1934    7217.8837   -150.72706    34.101325 
137344000    280.88349    240.94627    325.15768    -7226.336    7244.9835   -84.211406    34.092281 
137348000    280.42799    454.15099    215.25421   -7272.0871    7272.0236    238.89678    34.148487 
137352000    243.65891    338.42491    312.89399   -7290.4535    7303.9717    25.530921    34.122418 
137356000    276.77603    376.75875    398.34408    -7323.604    7327.0725   -21.585323     34.07325 
137360000    311.95145    457.01428    332.24949   -7336.4409    7318.4284    124.76479     34.04449 
137364000    278.18682    234.97807     294.8137   -7343.5147    7354.9118   -59.835629    34.118182 
137368000    297.36256    575.09724     311.4418   -7399.8474    7386.4945    263.65544    34.141268 
137372000    276.16289    322.81417    237.58789   -7417.5631    7414.9362    85.226286    34.129844 
137376000    286.01941     492.1435    370.54104   -7465.6986    7448.2841    121.60245    34.070508 
137380000    264.99602    313.97706    126.12289    -7467.534    7473.1589    187.85417    33.969643 
[...]
167328000    278.82742    273.23304    378.38557   -174089.23    174167.57   -105.15253    35.282231 
167332000     284.9952    491.73244     202.6096   -174125.98    174194.56    289.12284    35.282637 
167336000    268.85864    262.94377    288.18426   -174141.02    174217.22   -25.240485     35.28839 
167340000    280.06216    868.59602      280.865   -174165.57    174245.04    587.73102    35.289959 
167344000    266.85114    418.53306    247.96384   -174199.26    174273.79    170.56922    35.286538 
167348000     254.9665    278.26573    341.65528   -174215.23    174316.08   -63.389549    35.286824 
167352000    274.47784    460.26732    230.96747   -174224.12    174307.49    229.29985    35.288295 
167356000    290.20156    345.45284    427.30999   -174252.11    174330.79   -81.857156    35.287891 
167360000    265.12633      377.509    224.37631   -174269.06    174366.69     153.1327    35.289355 
167364000    309.50961    212.46824    451.35964      -174280    174335.82    -238.8914    35.285157 
167368000    272.71392    303.15495    330.23907      -174278    174366.36   -27.084128    35.291843 
167372000    294.76199    448.16246    293.58538   -174308.64    174378.72    154.57708    35.294987 
167376000    294.39736     237.0091    280.90879   -174320.09    174377.39   -43.899688    35.293208 
167380000    277.72248    268.26371    219.94619    -174350.5    174428.87    48.317525    35.291142 
167384000     304.7257     478.3687    235.32602    -174393.9    174438.08    243.04268    35.291358 
167388000    278.12394    360.09395      464.557   -174391.61    174482.81   -104.46305    35.291423 
167392000    268.02351    353.39394    317.17443   -174412.16    174496.61    36.219512    35.293655 
167396000    274.46312    399.54376     187.1998   -174441.98    174511.92    212.34395    35.295571 
167400000    260.92915    268.36754    412.29073   -174451.04    174545.93   -143.92319    35.293621 
167404000    265.35098    281.98454    243.98467   -174497.45    174568.15    37.999869    35.294547 
167408000     304.0134    293.47824    298.46768   -174535.42    174604.29   -4.9894415    35.298383 
167412000    279.69894    244.09424    169.47355   -174569.48       174643    74.620685    35.298883 
167416000    277.03852    571.02364    212.09934   -174595.38    174667.47     358.9243    35.300616 
167420000    251.64951    402.13705    204.74187   -174624.91    174691.54    197.39518    35.298888 
167424000    295.62301     532.2827    277.15024   -174642.05     174717.8    255.13246    35.299201 
167428000    286.90447    229.52874    306.50707   -174642.63    174723.19   -76.978328     35.29788 
167432000    258.36814    377.36793    302.78923   -174650.89    174735.24    74.578695    35.299428 
167436000    268.51969    445.24676    263.58222   -174651.56    174740.52    181.66453    35.304096 
167440000     275.9046     331.0761    219.44712   -174671.25    174771.77    111.62898    35.307319 
167444000     279.6542    323.78742    241.23095   -174699.95    174781.81    82.556475    35.307963 
167448000    270.39783    470.35703    292.45645   -174692.17    174762.78    177.90058    35.311403 
167452000    305.18087    412.32871    344.17711   -174715.26    174782.73    68.151608    35.310331 
167456000    283.96362    315.51967     405.4825    -174738.3    174819.47   -89.962834    35.313538 
167460000    277.08845    475.99815    408.09643   -174775.44    174839.93    67.901711    35.311847 
167464000    284.09049    771.06257    239.25832   -174788.46    174863.87    531.80426     35.30846 
167468000    273.74852    558.86828    393.47652    -174782.4    174863.82    165.39176     35.31145 
167472000    311.08463    483.97637    471.13914   -174804.36    174882.51    12.837227    35.312915 
167476000    286.82961    457.37097    271.39434   -174806.73    174911.48    185.97663    35.312503 
167480000    274.99406    384.18866     440.2379   -174834.39    174924.37   -56.049233    35.313985 
167484000    306.10439    370.17313    258.93176   -174873.73    174932.23    111.24137    35.313175 
167488000    291.38958     245.7926     261.9511   -174892.37       174962   -16.158496    35.305492 
167492000    297.51965    444.73283    324.01148   -174939.09    175019.62    120.72135    35.302354 
167496000    278.12558    277.71834    292.92078   -174973.65    175041.74   -15.202439    35.303022 
167500000    274.26449    227.71979    183.91037   -175001.21    175078.09    43.809414    35.298139 
167504000    281.27868    456.85753     293.0949   -175027.96     175107.4    163.76263     35.29608 
167508000     262.2993      293.663    442.58934   -175024.65    175119.75   -148.92635    35.288178 
167512000    308.50612    392.79081    438.36517   -175046.87    175119.16   -45.574359    35.288307 
167516000    272.91866    296.98907    162.50559   -175075.39    175152.05    134.48347    35.287902 
167520000    290.48226    438.19097    224.31322   -175082.82    175168.46    213.87775    35.289584 
167524000    265.24957    251.31238    180.11377   -175086.48    175175.87     71.19861    35.291862 
167528000    278.12518    307.73711    337.06676   -175079.91    175174.37   -29.329647    35.294116 
167532000    266.34665    404.01149    287.01506   -175115.45    175204.55    116.99643    35.294523 
167536000    288.76274    313.31878    284.39892   -175150.79    175224.73     28.91986    35.290426 
167540000    249.82758    253.93435    395.41835    -175169.9    175269.64     -141.484    35.290549 
167544000    282.80395    400.49861    362.51748   -175206.82    175286.17    37.981123    35.289013 
167548000    271.49086    449.21015    241.53416   -175221.36    175314.56    207.67599    35.292827 
167552000    280.87233    350.37639    274.80045   -175231.37    175311.46    75.575939    35.290694 
167556000    283.52108    299.80972    402.09926   -175218.92    175300.88   -102.28954    35.292149 
167560000    287.99124    399.87286    268.89897    -175238.9    175313.33     130.9739     35.29519 
167564000    319.85565    432.93908    316.13914   -175274.74    175330.54    116.79994    35.292084 
167568000    324.16498    538.52496    356.07691   -175273.23    175348.14    182.44806    35.287067 
167572000    266.88379    267.69193    297.60728   -175282.57    175377.62   -29.915346    35.285109 
167576000    308.54591    349.11198    287.30246   -175332.13    175380.07     61.80952    35.280484 
167580000     274.6884    364.04961    253.42886   -175343.41    175418.33    110.62075    35.279027 
167584000    298.06353    298.90846       367.77   -175347.13    175417.67   -68.861537    35.275769 
167588000    307.34852    528.81514    391.49953   -175376.16    175436.65    137.31561    35.275276 
167592000    289.18571    444.33406    292.31623   -175427.55    175481.66    152.01783    35.276141 
167596000    308.02785    441.50416    283.77772   -175445.25     175509.6    157.72644    35.275458 
167600000    303.98773    413.91219    448.54081   -175472.37    175531.99    -34.62862    35.275865 
167604000    288.73639    320.56844    341.36996   -175508.92    175588.31   -20.801518    35.270284 
167608000    295.57798    246.11168    452.17393   -175536.19    175618.26   -206.06225    35.268533 
167612000    263.35761    229.47041    287.87379   -175561.84    175649.57   -58.403381    35.268751 
167616000    288.82311    204.29855     356.3183   -175583.96    175666.75   -152.01975     35.27318 
167620000    262.79568    257.17887    380.52576   -175613.17    175711.59   -123.34689    35.270973 
167624000    281.71967    345.35073    288.65873   -175665.02    175735.33    56.692002    35.271278 
167628000    286.52082    338.06236    323.49606   -175662.21    175745.96      14.5663    35.273631 
167632000     292.5308    262.29478    207.79348   -175696.44    175765.58    54.501304    35.271946 
167636000    294.79017    389.13564    308.00549   -175687.53    175777.08    81.130156    35.274598 
167640000    297.98713    362.45329    443.74489   -175709.55    175784.66   -81.291596    35.278626 
167644000    292.84812    229.37389    310.71985   -175763.39    175837.22   -81.345961     35.27624 
167648000    264.80884     334.0252    385.78384   -175793.04    175880.73   -51.758644    35.274429 
167652000    272.68213    423.53852    307.00034   -175803.21       175893    116.53819    35.273569 
167656000    282.37606    362.17001    462.68193   -175844.65    175925.75   -100.51192    35.272941 
167660000    307.61346    754.13366    350.70575   -175867.33    175930.38    403.42791    35.274841 
167664000    287.42385    368.05592    269.36408   -175846.56    175930.91    98.691842    35.274628 
167668000    277.60412     270.2836    290.10153   -175876.26    175962.69   -19.817925    35.280493 
167672000    287.91626    268.31476    292.50327   -175884.62    175961.11   -24.188515    35.280767 
167676000    299.22165    300.34153    560.72796   -175896.97    175953.69   -260.38642    35.283196 
167680000     264.1668    369.37518    309.80693   -175911.59    175990.25    59.568248    35.283987 
167684000    291.91804    224.26924    250.46442   -175954.38    176027.43   -26.195182    35.286063 
167688000    280.17864    446.18225    346.14149   -175936.05    176027.79    100.04076    35.287792 
167692000      290.754    382.32434    187.64806   -175965.74    176038.85    194.67628    35.287448 
167696000    283.71679    216.91124    271.82723   -175994.07    176077.91   -54.915983    35.288505 
167700000    266.21647    198.23464    416.46004   -176018.72    176101.73    -218.2254    35.282796 
167704000    279.12828    393.58875    324.16327   -176070.99    176127.28    69.425483     35.28207 
167708000    266.50751    362.30722    331.43169   -176061.35    176144.85    30.875524    35.285309 
167712000     283.5418    354.16174    297.59613   -176086.68     176158.4    56.565603    35.289168 
167716000    293.39836    425.79362    275.11401   -176102.43    176162.07    150.67961     35.29444 
167720000     268.7577    323.95841    256.69475   -176110.18    176203.85    67.263661     35.30011 
167724000    308.91989    299.84863    461.26006      -176155    176206.36   -161.41143    35.302398 
167728000    281.87987    375.97025    235.27166   -176167.14    176237.09    140.69858    35.301876 
167732000    283.42581    224.94849    219.15866   -176180.29    176238.93    5.7898289    35.301071 
167736000    283.50922    413.59878    418.63834   -176179.31    176257.25   -5.0395574     35.30193 
167740000    272.45658    293.33313    198.83722   -176215.55    176286.85    94.495902    35.298585 
167744000    287.44182    311.71975    322.71117   -176214.83    176291.89   -10.991416    35.299229 
167748000    303.18092    371.97154    331.14517   -176231.91    176305.15    40.826367     35.30169 
167752000    267.34231    356.79268    556.01049    -176246.4    176319.01   -199.21781     35.30061 
167756000    299.23905    160.14562    354.23227    -176248.2    176328.64   -194.08665    35.302369 
167760000    272.17905    345.26165     223.7887   -176267.97    176352.67    121.47295    35.300195 
167764000    305.17798     256.2926      229.178   -176286.62    176361.16    27.114598     35.30028 
167768000    275.64936    262.32158     294.4425   -176318.46    176387.08   -32.120921    35.304305 
167772000    280.45377    264.44804    261.75481   -176326.03    176429.66    2.6932327    35.302313 
167776000    293.18902    326.35837     239.9637   -176378.05    176458.13    86.394668    35.305544 
167780000    291.49137     490.5044    373.47165   -176403.75    176474.05    117.03276    35.306436 
167784000    301.16318    400.60705    213.12279   -176441.02    176503.41    187.48426    35.307578 
167788000    277.30218    186.55398     137.1264   -176461.69     176530.2    49.427574    35.308401 
167792000    289.01585    82.719969    514.08468   -176467.82    176560.27   -431.36471    35.303297 
167796000    308.86237    299.14489    478.05409   -176495.19    176550.81    -178.9092    35.299061 
167800000    282.95462     371.6454    367.11467      -176491    176561.56    4.5307323    35.299164 
167804000    270.60823     208.6384    322.59696   -176505.78    176583.05   -113.95855    35.294011 
167808000     300.2958    373.77445    422.57847   -176515.67    176595.43   -48.804016    35.288454 
167812000    306.36452    593.14382    343.91045   -176555.08    176603.31    249.23337    35.293904 
167816000    282.52416    331.32363    500.09539    -176574.8    176639.59   -168.77176    35.290416 
167820000    274.62107    399.84749    323.74436   -176592.89    176673.65    76.103125    35.290502 
167824000        303.2    528.32652    364.88101      -176617    176679.33    163.44551    35.288521 
167828000    298.00124    286.63402    268.63509   -176645.63    176700.23    17.998938    35.288982 
167832000    291.45418    281.07744    179.66997   -176633.04    176715.61    101.40748    35.287097 
167836000    287.25318    403.30321    301.30166   -176676.44    176738.57    102.00155    35.287335 
167840000    303.98835    389.20832    409.70395   -176684.14    176764.74   -20.495631    35.285518 
167844000    291.70705    308.44114    275.82612   -176721.21    176791.09    32.615019     35.28512 
167848000    282.23591    533.13044    245.25444   -176736.41    176820.04      287.876     35.28766 
167852000     288.6198    492.68044    394.49307   -176762.61    176843.52     98.18737    35.293181 
167856000     305.2504    330.93394    283.27042   -176794.17    176853.11    47.663523    35.292355 
167860000    286.61271    291.84466    236.34638   -176841.52    176892.95    55.498279    35.298788 
167864000    273.89726    261.31149    350.61166   -176845.39    176931.55   -89.300175    35.297458 
167868000    248.27163    307.76831    226.88547   -176858.16    176945.58    80.882841    35.299723 
167872000    283.91444    329.83351    251.99026   -176882.46    176968.87    77.843248    35.302485 
167876000     256.9987    386.12126     308.0371    -176892.8    176998.24    78.084157     35.30757 
167880000    280.49005    385.30543    331.70965   -176907.42    176991.33    53.595787    35.304023 
167884000    321.70589    321.17757    359.77294   -176952.43    177013.39   -38.595373     35.30471 
167888000    281.88235    345.96651    380.33234   -176956.74     177041.7   -34.365827    35.304617 
167892000    305.99913    647.40859    218.30182   -176974.19    177029.41    429.10677    35.310039 
167896000    278.66966    272.31439    291.47117   -176971.16    177066.59   -19.156775    35.308776 
167900000    288.37009    220.27126    312.45813   -176999.92     177072.9   -92.186865    35.310153 
167904000    284.26781    448.39533    156.12234   -177029.46    177107.34    292.27299    35.306637 
167908000      323.651    290.69411    646.10591   -177047.73    177086.58    -355.4118    35.305957 
167912000    302.76369    416.11161    336.43129   -177083.08    177146.99    79.680319    35.307532 
167916000    258.60411    300.70361    266.25496   -177066.01    177168.36    34.448647    35.308095 
167920000     265.6917    283.89348    319.00189   -177105.08    177194.94   -35.108413    35.306345 
167924000    247.40678    301.68028    262.28524    -177130.9    177217.35    39.395039    35.308819 
167928000    288.37094    443.50213    369.50638   -177152.79    177234.16    73.995757    35.310197 
167932000     272.5423    406.24261    297.45638   -177202.23    177269.78    108.78623    35.311784 
167936000    287.29602     413.9201    444.58666   -177231.75    177299.96   -30.666557    35.311375 
167940000    291.45177    402.72758    272.56326   -177258.99    177331.82    130.16432    35.309611 
167944000    261.89402    215.25404    143.81666   -177271.71    177357.38    71.437383     35.30888 
167948000    277.99439    476.10491    354.35117   -177296.93    177388.73    121.75374    35.308293 
167952000    266.13877    430.25839    270.51914   -177328.44    177416.19    159.73925    35.311588 
167956000    263.49532    306.16542    252.93616   -177342.25    177447.94    53.229257    35.311837 
167960000    301.29622    303.69237    302.77876   -177400.39    177463.86   0.91361407    35.308594 
167964000    259.09662    266.03522    298.70558   -177428.08    177505.16   -32.670354    35.308237 
167968000     269.3619    378.46445    318.52375   -177450.82    177533.87    59.940699    35.303728 
167972000    280.24344    424.82016    351.91612   -177448.14    177536.48    72.904036     35.30542 
167976000    255.79479    234.86365    335.12382   -177471.41     177548.5   -100.26017    35.303078 
167980000    297.36465     253.3466    296.86262    -177486.7     177563.8   -43.516016    35.305445 
167984000    291.53547    671.62856    422.57006      -177523    177575.39     249.0585    35.304846 
167988000    280.31115    430.53837    230.43961   -177528.16    177583.67    200.09876    35.308961 
167992000    288.33667    397.16909    331.81558   -177516.93    177597.93    65.353503    35.310741 
167996000    268.12754    255.94052    358.85711   -177528.67    177617.62   -102.91659    35.308439 
168000000    282.90843    268.69363    520.28323   -177583.18    177645.46    -251.5896    35.309461 
168004000    319.59015    645.10368    302.09168   -177622.85    177684.46    343.01199    35.307967 
168008000    293.08265    408.58449    287.63604   -177636.94    177716.22    120.94845    35.307721 
168012000    290.88592    476.95135    293.93891   -177661.78    177738.72    183.01244    35.310309 
168016000    294.28506    419.90139    306.88477   -177702.32    177784.43    113.01662    35.310805 
168020000    293.50016      308.967     273.4428   -177724.12    177790.12    35.524199    35.305435 
168024000    294.90865    639.47903    315.39814   -177751.57    177808.81    324.08089    35.310093 
168028000    297.93263    246.44386    310.31663   -177749.36    177823.33   -63.872773    35.311015 
168032000    291.75868    303.78057    352.06668   -177753.01    177825.45   -48.286111    35.311973 
168036000    271.12169    221.12939    324.76457   -177763.96    177844.06   -103.63518    35.309886 
168040000    263.13128    348.83336    191.07061   -177786.33    177863.03    157.76275     35.30619 
168044000    294.84732    316.91487    358.24359   -177793.71    177864.38   -41.328714    35.307424 
168048000    273.90784    304.44485    291.59779   -177797.56    177888.86    12.847059    35.301742 
168052000    272.97359    463.74067    272.94387   -177840.74    177928.72     190.7968    35.303072 
168056000    286.10079    415.18539    400.77341   -177887.57    177965.27    14.411976    35.301539 
168060000     267.2978    309.18036    161.99978   -177919.77     178017.7    147.18059     35.30264 
Loop time of 5221.07 on 1 procs for 32000000 steps with 196 atoms

Performance: 661.933 ns/day, 0.036 hours/ns, 6129.009 timesteps/s
99.9% CPU use with 1 MPI tasks x no OpenMP threads

MPI task timing breakdown:
Section |  min time  |  avg time  |  max time  |%varavg| %total
---------------------------------------------------------------
Pair    | 1582.9     | 1582.9     | 1582.9     |   0.0 | 30.32
Bond    | 2582       | 2582       | 2582       |   0.0 | 49.45
Neigh   | 23.764     | 23.764     | 23.764     |   0.0 |  0.46
Comm    | 8.9987     | 8.9987     | 8.9987     |   0.0 |  0.17
Output  | 4.0001     | 4.0001     | 4.0001     |   0.0 |  0.08
Modify  | 989.78     | 989.78     | 989.78     |   0.0 | 18.96
Other   |            | 29.69      |            |       |  0.57

Nlocal:    196 ave 196 max 196 min
Histogram: 1 0 0 0 0 0 0 0 0 0
Nghost:    0 ave 0 max 0 min
Histogram: 1 0 0 0 0 0 0 0 0 0
Neighs:    3868 ave 3868 max 3868 min
Histogram: 1 0 0 0 0 0 0 0 0 0

Total # of neighbors = 3868
Ave neighs/atom = 19.7347
Ave special neighs/atom = 5.87755
Neighbor list builds = 111760
Dangerous builds = 0

write_restart FINALCONFIG

Total wall time: 1:31:24
