LAMMPS UA chain data file
 
         72  atoms
         70  bonds
         68  angles
         66  dihedrals
           0  impropers
 
           3  atom types
           1  bond types
           1  angle types
           1  dihedral types
           0  improper types
 
    -400.000000     400.000000 xlo xhi
    -400.000000     400.000000 ylo yhi
   -0.050000      45.000000 zlo zhi
 
Masses
 
  1   14.00
  2   14.00
  3   14.00
 
Atoms

 1 1 3 -3.06912 0.208527 -0.00442127 0 0 0
 2 1 3 -2.07431 0.849234 1.05391 0 0 0
 3 1 3 -2.30412 1.04172 2.61649 0 0 0
 4 1 1 -1.04511 1.37058 3.64389 0 0 0
 5 1 1 -1.06043 1.31109 5.26802 0 0 0
 6 1 1 0.239426 1.02834 6.23825 0 0 0
 7 1 1 0.290858 0.99646 7.87615 0 0 0
 8 1 1 1.18423 -0.0677116 8.7078 0 0 0
 9 1 1 1.11049 -0.0778441 10.3612 0 0 0
 10 1 1 1.13328 -1.38719 11.2543 0 0 0
 11 1 1 1.05268 -1.4837 12.8236 0 0 0
 12 1 1 -0.0126263 -2.28637 13.8152 0 0 0
 13 1 1 -0.0153734 -2.32618 15.4431 0 0 0
 14 1 1 -1.33433 -2.24428 16.3199 0 0 0
 15 1 1 -1.35897 -2.20344 17.9166 0 0 0
 16 1 1 -2.1635 -1.16806 18.838 0 0 0
 17 1 1 -2.15286 -1.3451 20.4135 0 0 0
 18 1 1 -2.1089 -0.0892338 21.3943 0 0 0
 19 1 1 -2.21826 -0.162345 22.9788 0 0 0
 20 1 1 -1.23452 0.645463 23.9277 0 0 0
 21 1 1 -1.16648 0.519574 25.5392 0 0 0
 22 1 1 0.200474 0.529798 26.3709 0 0 0
 23 1 1 0.375072 0.574049 27.9768 0 0 0
 24 1 1 1.13056 -0.521469 28.9022 0 0 0
 25 1 1 1.04956 -0.636721 30.4784 0 0 0
 26 1 1 0.853439 -2.00689 31.3036 0 0 0
 27 1 1 0.717989 -1.9427 32.8606 0 0 0
 28 1 1 -0.154553 -2.86244 33.8446 0 0 0
 29 1 1 -0.20497 -2.84366 35.4213 0 0 0
 30 1 1 -1.50607 -2.39869 36.2495 0 0 0
 31 1 1 -1.50616 -2.40582 37.8815 0 0 0
 32 1 1 -2.5661 -1.77909 38.9188 0 0 0
 33 1 1 -2.33169 -1.57628 40.4914 0 0 0
 34 1 2 -3.2105 -0.9516 41.6799 0 0 0
 35 1 2 -2.7795 -1.602 42.9777 0 0 0
 36 1 2 -3.1141 -0.6745 44.2171 0 0 0
 37 2 3 1.74772 -0.690727 -0.00442127 0 0 0
 38 2 3 1.63257 -1.11335 1.5712 0 0 0
 39 2 3 0.404455 -1.40223 2.47591 0 0 0
 40 2 1 0.476778 -1.99646 3.96989 0 0 0
 41 2 1 -0.844295 -1.98317 4.89048 0 0 0
 42 2 1 -0.86949 -2.18256 6.46644 0 0 0
 43 2 1 -1.95247 -1.54866 7.4665 0 0 0
 44 2 1 -1.97979 -1.68257 9.07347 0 0 0
 45 2 1 -2.12305 -0.378754 10.0457 0 0 0
 46 2 1 -2.19536 -0.484854 11.6392 0 0 0
 47 2 1 -1.68594 0.63458 12.7073 0 0 0
 48 2 1 -1.86681 0.65313 14.3136 0 0 0
 49 2 1 -0.60775 1.00191 15.1859 0 0 0
 50 2 1 -0.522324 1.07127 16.8 0 0 0
 51 2 1 0.660919 0.471779 17.7432 0 0 0
 52 2 1 0.613923 0.399686 19.3413 0 0 0
 53 2 1 1.23265 -0.814577 20.1624 0 0 0
 54 2 1 1.22332 -0.942172 21.7667 0 0 0
 55 2 1 0.635828 -2.15322 22.5661 0 0 0
 56 2 1 0.729361 -2.3632 24.1645 0 0 0
 57 2 1 -0.604908 -2.67978 25.0296 0 0 0
 58 2 1 -0.722718 -2.81911 26.65 0 0 0
 59 2 1 -1.89297 -2.09232 27.4782 0 0 0
 60 2 1 -2.15024 -2.07704 29.045 0 0 0
 61 2 1 -2.24799 -0.703203 29.9642 0 0 0
 62 2 1 -2.34405 -0.6933 31.5834 0 0 0
 63 2 1 -1.65157 0.36525 32.5839 0 0 0
 64 2 1 -1.57317 0.422388 34.1417 0 0 0
 65 2 1 -0.262032 0.604761 35.0476 0 0 0
 66 2 1 -0.249711 0.611412 36.6392 0 0 0
 67 2 1 0.945896 0.0609903 37.5762 0 0 0
 68 2 1 0.950183 -0.108964 39.2011 0 0 0
 69 2 1 1.79518 -1.14354 40.1128 0 0 0
 70 2 2 1.6895 -0.9516 41.6799 0 0 0
 71 2 2 2.1205 -1.602 42.9777 0 0 0
 72 2 2 1.7859 -0.6745 44.2171 0 0 0

Bonds
 
       1         1         1       2
       2         1         2       3
       3         1         3       4
       4         1         4       5
       5         1         5       6
       6         1         6       7
       7         1         7       8
       8         1         8       9
       9         1         9      10
      10         1        10      11
      11         1        11      12
      12         1        12      13
      13         1        13      14
      14         1        14      15
      15         1        15      16
      16         1        16      17
      17         1        17      18
      18         1        18      19
      19         1        19      20
      20         1        20      21
      21         1        21      22
      22         1        22      23
      23         1        23      24
      24         1        24      25
      25         1        25      26
      26         1        26      27
      27         1        27      28
      28         1        28      29
      29         1        29      30
      30         1        30      31
      31         1        31      32
      32         1        32      33
      33         1        33      34
      34         1        34      35
      35         1        35      36
      36         1        37      38
      37         1        38      39
      38         1        39      40
      39         1        40      41
      40         1        41      42
      41         1        42      43
      42         1        43      44
      43         1        44      45
      44         1        45      46
      45         1        46      47
      46         1        47      48
      47         1        48      49
      48         1        49      50
      49         1        50      51
      50         1        51      52
      51         1        52      53
      52         1        53      54
      53         1        54      55
      54         1        55      56
      55         1        56      57
      56         1        57      58
      57         1        58      59
      58         1        59      60
      59         1        60      61
      60         1        61      62
      61         1        62      63
      62         1        63      64
      63         1        64      65
      64         1        65      66
      65         1        66      67
      66         1        67      68
      67         1        68      69
      68         1        69      70
      69         1        70      71
      70         1        71      72
     

 
Angles
 
           1           1           1           2           3
           2           1           2           3           4
           3           1           3           4           5
           4           1           4           5           6
           5           1           5           6           7
           6           1           6           7           8
           7           1           7           8           9
           8           1           8           9          10
           9           1           9          10          11
          10           1          10          11          12
          11           1          11          12          13
          12           1          12          13          14
          13           1          13          14          15
          14           1          14          15          16
          15           1          15          16          17
          16           1          16          17          18
          17           1          17          18          19
          18           1          18          19          20
          19           1          19          20          21
          20           1          20          21          22
          21           1          21          22          23
          22           1          22          23          24
          23           1          23          24          25
          24           1          24          25          26
          25           1          25          26          27
          26           1          26          27          28
          27           1          27          28          29
          28           1          28          29          30
          29           1          29          30          31
          30           1          30          31          32
          31           1          31          32          33
          32           1          32          33          34
          33           1          33          34          35
          34           1          34          35          36
          35           1          37          38          39
          36           1          38          39          40
          37           1          39          40          41
          38           1          40          41          42
          39           1          41          42          43
          40           1          42          43          44
          41           1          43          44          45
          42           1          44          45          46
          43           1          45          46          47
          44           1          46          47          48
          45           1          47          48          49
          46           1          48          49          50
          47           1          49          50          51
          48           1          50          51          52
          49           1          51          52          53
          50           1          52          53          54
          51           1          53          54          55
          52           1          54          55          56
          53           1          55          56          57
          54           1          56          57          58
          55           1          57          58          59
          56           1          58          59          60
          57           1          59          60          61
          58           1          60          61          62
          59           1          61          62          63
          60           1          62          63          64
          61           1          63          64          65
          62           1          64          65          66
          63           1          65          66          67
          64           1          66          67          68
          65           1          67          68          69
          66           1          68          69          70
          67           1          69          70          71
          68           1          70          71          72

 
Dihedrals
 
           1           1           1           2           3           4
           2           1           2           3           4           5
           3           1           3           4           5           6
           4           1           4           5           6           7
           5           1           5           6           7           8
           6           1           6           7           8           9
           7           1           7           8           9          10
           8           1           8           9          10          11
           9           1           9          10          11          12
          10           1          10          11          12          13
          11           1          11          12          13          14
          12           1          12          13          14          15
          13           1          13          14          15          16
          14           1          14          15          16          17
          15           1          15          16          17          18
          16           1          16          17          18          19
          17           1          17          18          19          20
          18           1          18          19          20          21
          19           1          19          20          21          22
          20           1          20          21          22          23
          21           1          21          22          23          24
          22           1          22          23          24          25
          23           1          23          24          25          26
          24           1          24          25          26          27
          25           1          25          26          27          28
          26           1          26          27          28          29
          27           1          27          28          29          30
          28           1          28          29          30          31
          29           1          29          30          31          32
          30           1          30          31          32          33
          31           1          31          32          33          34
          32           1          32          33          34          35
          33           1          33          34          35          36
          34           1          37          38          39          40
          35           1          38          39          40          41
          36           1          39          40          41          42
          37           1          40          41          42          43
          38           1          41          42          43          44
          39           1          42          43          44          45
          40           1          43          44          45          46
          41           1          44          45          46          47
          42           1          45          46          47          48
          43           1          46          47          48          49
          44           1          47          48          49          50
          45           1          48          49          50          51
          46           1          49          50          51          52
          47           1          50          51          52          53
          48           1          51          52          53          54
          49           1          52          53          54          55
          50           1          53          54          55          56
          51           1          54          55          56          57
          52           1          55          56          57          58
          53           1          56          57          58          59
          54           1          57          58          59          60
          55           1          58          59          60          61
          56           1          59          60          61          62
          57           1          60          61          62          63
          58           1          61          62          63          64
          59           1          62          63          64          65
          60           1          63          64          65          66
          61           1          64          65          66          67
          62           1          65          66          67          68
          63           1          66          67          68          69
          64           1          67          68          69          70
          65           1          68          69          70          71
          66           1          69          70          71          72
