LAMMPS UA chain data file
 
         72  atoms
         70  bonds
         68  angles
         66  dihedrals
           0  impropers
 
           3  atom types
           1  bond types
           1  angle types
           1  dihedral types
           0  improper types
 
    -400.000000     400.000000 xlo xhi
    -400.000000     400.000000 ylo yhi
   -0.050000      45.000000 zlo zhi
 
Masses
 
  1   14.00
  2   14.00
  3   14.00
 
Atoms

 1 1 3 -3.09085 0.0708332 -0.00442127 0 0 0
 2 1 3 -1.69639 0.460316 0.977008 0 0 0
 3 1 3 -1.22253 1.03527 2.4843 0 0 0
 4 1 1 0.158464 1.07781 3.5687 0 0 0
 5 1 1 1.03459 0.084873 4.73642 0 0 0
 6 1 1 0.976203 -0.81675 6.32604 0 0 0
 7 1 1 0.0383568 -1.87786 7.32335 0 0 0
 8 1 1 -1.32472 -1.88948 8.39067 0 0 0
 9 1 1 -2.0375 -1.22478 9.88851 0 0 0
 10 1 1 -2.16939 0.0555207 11.0432 0 0 0
 11 1 1 -1.19628 1.0153 12.1732 0 0 0
 12 1 1 -0.477722 1.07882 13.7366 0 0 0
 13 1 1 0.59428 0.302177 14.7944 0 0 0
 14 1 1 0.629055 -1.09338 15.8423 0 0 0
 15 1 1 0.1048 -1.78739 17.3715 0 0 0
 16 1 1 -1.27175 -1.90336 18.5029 0 0 0
 17 1 1 -2.2889 -1.05632 19.6447 0 0 0
 18 1 1 -2.33776 -0.352491 21.2377 0 0 0
 19 1 1 -1.47558 0.683064 22.3608 0 0 0
 20 1 1 -0.0894857 0.647481 23.4363 0 0 0
 21 1 1 0.457095 0.084644 24.9666 0 0 0
 22 1 1 0.497158 -1.28531 26.0333 0 0 0
 23 1 1 -0.396206 -2.2637 27.1408 0 0 0
 24 1 1 -1.25611 -2.33625 28.627 0 0 0
 25 1 1 -2.27595 -1.46432 29.7634 0 0 0
 26 1 1 -2.46597 -0.118967 30.9242 0 0 0
 27 1 1 -2.02797 0.501006 32.4475 0 0 0
 28 1 1 -0.750709 0.512459 33.6454 0 0 0
 29 1 1 0.185731 -0.493188 34.7262 0 0 0
 30 1 1 0.0759839 -1.33375 36.3411 0 0 0
 31 1 1 -0.946418 -2.17245 37.5505 0 0 0
 32 1 1 -2.21327 -1.95404 38.7465 0 0 0
 33 1 1 -2.34154 -1.7246 40.4229 0 0 0
 34 1 2 -3.2105 -0.9516 41.6799 0 0 0
 35 1 2 -2.7795 -1.602 42.9777 0 0 0
 36 1 2 -3.1141 -0.6745 44.2171 0 0 0
 37 2 3 1.76945 -0.553033 -0.00442127 0 0 0
 38 2 3 1.21959 -1.24847 1.46947 0 0 0
 39 2 3 -0.238622 -1.77076 2.28631 0 0 0
 40 2 1 -1.06751 -1.77743 3.84533 0 0 0
 41 2 1 -1.93154 -0.797229 5.06307 0 0 0
 42 2 1 -1.59987 0.4784 6.18547 0 0 0
 43 2 1 -1.01879 0.999935 7.75913 0 0 0
 44 2 1 0.171216 0.701787 8.98536 0 0 0
 45 2 1 0.750157 -0.379628 10.2388 0 0 0
 46 2 1 0.405821 -1.39302 11.6175 0 0 0
 47 2 1 -0.744597 -1.97575 12.8213 0 0 0
 48 2 1 -1.92927 -1.43149 13.9643 0 0 0
 49 2 1 -2.2931 -0.787807 15.4921 0 0 0
 50 2 1 -1.89969 0.453873 16.5576 0 0 0
 51 2 1 -0.748889 1.01034 17.7378 0 0 0
 52 2 1 -0.0222925 0.712868 19.3137 0 0 0
 53 2 1 0.674366 -0.526603 20.4275 0 0 0
 54 2 1 0.112377 -1.83646 21.4733 0 0 0
 55 2 1 -0.584381 -2.18764 23.0377 0 0 0
 56 2 1 -1.84227 -1.78156 24.2335 0 0 0
 57 2 1 -2.33309 -0.597337 25.3801 0 0 0
 58 2 1 -2.04762 0.176515 26.9173 0 0 0
 59 2 1 -0.852709 0.707324 28.0437 0 0 0
 60 2 1 0.236363 0.0915316 29.2655 0 0 0
 61 2 1 0.379815 -0.729889 30.8232 0 0 0
 62 2 1 -0.247062 -2.01075 31.8803 0 0 0
 63 2 1 -1.58221 -2.38054 32.9484 0 0 0
 64 2 1 -2.30496 -1.96702 34.4937 0 0 0
 65 2 1 -2.70708 -0.579525 35.557 0 0 0
 66 2 1 -2.04238 0.631538 36.7199 0 0 0
 67 2 1 -1.30149 0.864374 38.3101 0 0 0
 68 2 1 0.0705027 0.40396 39.3207 0 0 0
 69 2 1 0.393382 -0.186077 40.904 0 0 0
 70 2 2 1.6895 -0.9516 41.6799 0 0 0
 71 2 2 2.1205 -1.602 42.9777 0 0 0
 72 2 2 1.7859 -0.6745 44.2171 0 0 0

Bonds
 
       1         1         1       2
       2         1         2       3
       3         1         3       4
       4         1         4       5
       5         1         5       6
       6         1         6       7
       7         1         7       8
       8         1         8       9
       9         1         9      10
      10         1        10      11
      11         1        11      12
      12         1        12      13
      13         1        13      14
      14         1        14      15
      15         1        15      16
      16         1        16      17
      17         1        17      18
      18         1        18      19
      19         1        19      20
      20         1        20      21
      21         1        21      22
      22         1        22      23
      23         1        23      24
      24         1        24      25
      25         1        25      26
      26         1        26      27
      27         1        27      28
      28         1        28      29
      29         1        29      30
      30         1        30      31
      31         1        31      32
      32         1        32      33
      33         1        33      34
      34         1        34      35
      35         1        35      36
      36         1        37      38
      37         1        38      39
      38         1        39      40
      39         1        40      41
      40         1        41      42
      41         1        42      43
      42         1        43      44
      43         1        44      45
      44         1        45      46
      45         1        46      47
      46         1        47      48
      47         1        48      49
      48         1        49      50
      49         1        50      51
      50         1        51      52
      51         1        52      53
      52         1        53      54
      53         1        54      55
      54         1        55      56
      55         1        56      57
      56         1        57      58
      57         1        58      59
      58         1        59      60
      59         1        60      61
      60         1        61      62
      61         1        62      63
      62         1        63      64
      63         1        64      65
      64         1        65      66
      65         1        66      67
      66         1        67      68
      67         1        68      69
      68         1        69      70
      69         1        70      71
      70         1        71      72
     

 
Angles
 
           1           1           1           2           3
           2           1           2           3           4
           3           1           3           4           5
           4           1           4           5           6
           5           1           5           6           7
           6           1           6           7           8
           7           1           7           8           9
           8           1           8           9          10
           9           1           9          10          11
          10           1          10          11          12
          11           1          11          12          13
          12           1          12          13          14
          13           1          13          14          15
          14           1          14          15          16
          15           1          15          16          17
          16           1          16          17          18
          17           1          17          18          19
          18           1          18          19          20
          19           1          19          20          21
          20           1          20          21          22
          21           1          21          22          23
          22           1          22          23          24
          23           1          23          24          25
          24           1          24          25          26
          25           1          25          26          27
          26           1          26          27          28
          27           1          27          28          29
          28           1          28          29          30
          29           1          29          30          31
          30           1          30          31          32
          31           1          31          32          33
          32           1          32          33          34
          33           1          33          34          35
          34           1          34          35          36
          35           1          37          38          39
          36           1          38          39          40
          37           1          39          40          41
          38           1          40          41          42
          39           1          41          42          43
          40           1          42          43          44
          41           1          43          44          45
          42           1          44          45          46
          43           1          45          46          47
          44           1          46          47          48
          45           1          47          48          49
          46           1          48          49          50
          47           1          49          50          51
          48           1          50          51          52
          49           1          51          52          53
          50           1          52          53          54
          51           1          53          54          55
          52           1          54          55          56
          53           1          55          56          57
          54           1          56          57          58
          55           1          57          58          59
          56           1          58          59          60
          57           1          59          60          61
          58           1          60          61          62
          59           1          61          62          63
          60           1          62          63          64
          61           1          63          64          65
          62           1          64          65          66
          63           1          65          66          67
          64           1          66          67          68
          65           1          67          68          69
          66           1          68          69          70
          67           1          69          70          71
          68           1          70          71          72

 
Dihedrals
 
           1           1           1           2           3           4
           2           1           2           3           4           5
           3           1           3           4           5           6
           4           1           4           5           6           7
           5           1           5           6           7           8
           6           1           6           7           8           9
           7           1           7           8           9          10
           8           1           8           9          10          11
           9           1           9          10          11          12
          10           1          10          11          12          13
          11           1          11          12          13          14
          12           1          12          13          14          15
          13           1          13          14          15          16
          14           1          14          15          16          17
          15           1          15          16          17          18
          16           1          16          17          18          19
          17           1          17          18          19          20
          18           1          18          19          20          21
          19           1          19          20          21          22
          20           1          20          21          22          23
          21           1          21          22          23          24
          22           1          22          23          24          25
          23           1          23          24          25          26
          24           1          24          25          26          27
          25           1          25          26          27          28
          26           1          26          27          28          29
          27           1          27          28          29          30
          28           1          28          29          30          31
          29           1          29          30          31          32
          30           1          30          31          32          33
          31           1          31          32          33          34
          32           1          32          33          34          35
          33           1          33          34          35          36
          34           1          37          38          39          40
          35           1          38          39          40          41
          36           1          39          40          41          42
          37           1          40          41          42          43
          38           1          41          42          43          44
          39           1          42          43          44          45
          40           1          43          44          45          46
          41           1          44          45          46          47
          42           1          45          46          47          48
          43           1          46          47          48          49
          44           1          47          48          49          50
          45           1          48          49          50          51
          46           1          49          50          51          52
          47           1          50          51          52          53
          48           1          51          52          53          54
          49           1          52          53          54          55
          50           1          53          54          55          56
          51           1          54          55          56          57
          52           1          55          56          57          58
          53           1          56          57          58          59
          54           1          57          58          59          60
          55           1          58          59          60          61
          56           1          59          60          61          62
          57           1          60          61          62          63
          58           1          61          62          63          64
          59           1          62          63          64          65
          60           1          63          64          65          66
          61           1          64          65          66          67
          62           1          65          66          67          68
          63           1          66          67          68          69
          64           1          67          68          69          70
          65           1          68          69          70          71
          66           1          69          70          71          72
