LAMMPS UA chain data file
 
         72  atoms
         70  bonds
         68  angles
         66  dihedrals
           0  impropers
 
           3  atom types
           1  bond types
           1  angle types
           1  dihedral types
           0  improper types
 
    -400.000000     400.000000 xlo xhi
    -400.000000     400.000000 ylo yhi
   -0.050000      45.000000 zlo zhi
 
Masses
 
  1   14.00
  2   14.00
  3   14.00
 
Atoms

 1 1 3 -3.10702 -0.10669 -0.00442127 0 0 0
 2 1 3 -3.35541 0.124146 1.50446 0 0 0
 3 1 3 -2.22807 0.498586 2.52945 0 0 0
 4 1 1 -2.72518 0.728609 4.02649 0 0 0
 5 1 1 -1.6366 0.877015 5.07647 0 0 0
 6 1 1 -2.11487 1.42193 6.41191 0 0 0
 7 1 1 -1.02296 1.63066 7.53728 0 0 0
 8 1 1 -1.664 1.71112 8.95237 0 0 0
 9 1 1 -0.550347 1.60459 10.0073 0 0 0
 10 1 1 -1.12384 1.51876 11.4362 0 0 0
 11 1 1 -0.0569184 1.41077 12.5946 0 0 0
 12 1 1 -0.360763 1.24192 14.1281 0 0 0
 13 1 1 0.767596 0.82887 15.0348 0 0 0
 14 1 1 0.499753 0.853621 16.5389 0 0 0
 15 1 1 1.32148 -0.104001 17.403 0 0 0
 16 1 1 0.967677 -0.0181308 18.9406 0 0 0
 17 1 1 1.52441 -0.986396 20.005 0 0 0
 18 1 1 0.988871 -0.823395 21.4421 0 0 0
 19 1 1 1.2416 -1.85243 22.5541 0 0 0
 20 1 1 0.681383 -1.64859 23.9895 0 0 0
 21 1 1 0.973146 -2.60616 25.1939 0 0 0
 22 1 1 0.365341 -2.13465 26.5969 0 0 0
 23 1 1 0.288684 -3.21981 27.6596 0 0 0
 24 1 1 -0.343795 -2.68058 28.941 0 0 0
 25 1 1 -0.53494 -3.47109 30.2619 0 0 0
 26 1 1 -1.47338 -3.00565 31.4249 0 0 0
 27 1 1 -1.19217 -3.41997 32.9088 0 0 0
 28 1 1 -2.26384 -2.73632 33.8889 0 0 0
 29 1 1 -1.96471 -2.95036 35.4442 0 0 0
 30 1 1 -2.76265 -2.13277 36.5368 0 0 0
 31 1 1 -2.28158 -2.31902 38.0359 0 0 0
 32 1 1 -2.81441 -1.36417 39.1088 0 0 0
 33 1 1 -2.62184 -1.88729 40.5903 0 0 0
 34 1 2 -3.2105 -0.9516 41.6799 0 0 0
 35 1 2 -2.7795 -1.602 42.9777 0 0 0
 36 1 2 -3.1141 -0.6745 44.2171 0 0 0
 37 2 3 1.78562 -0.37551 -0.00442127 0 0 0
 38 2 3 0.857269 -1.15255 0.97121 0 0 0
 39 2 3 1.21838 -1.22947 2.504 0 0 0
 40 2 1 0.439112 -2.20115 3.4793 0 0 0
 41 2 1 0.993939 -2.22707 4.92244 0 0 0
 42 2 1 -0.0790488 -2.47508 6.03075 0 0 0
 43 2 1 0.394414 -2.38177 7.50569 0 0 0
 44 2 1 -0.743816 -2.45778 8.56908 0 0 0
 45 2 1 -0.4088 -2.34066 10.1032 0 0 0
 46 2 1 -1.46562 -2.90787 11.1792 0 0 0
 47 2 1 -0.988007 -2.46588 12.5204 0 0 0
 48 2 1 -1.74853 -2.94048 13.7745 0 0 0
 49 2 1 -1.35742 -2.39365 15.1627 0 0 0
 50 2 1 -2.30194 -2.66696 16.3955 0 0 0
 51 2 1 -2.01331 -1.79804 17.6556 0 0 0
 52 2 1 -2.86226 -1.84044 18.977 0 0 0
 53 2 1 -2.36487 -0.919225 20.1304 0 0 0
 54 2 1 -3.16845 -0.850641 21.5155 0 0 0
 55 2 1 -2.62114 0.125995 22.6475 0 0 0
 56 2 1 -3.12772 -0.0788826 24.0931 0 0 0
 57 2 1 -2.33069 0.770867 25.188 0 0 0
 58 2 1 -2.76828 0.269067 26.6668 0 0 0
 59 2 1 -1.88716 0.9351 27.7646 0 0 0
 60 2 1 -2.14566 0.450603 29.2869 0 0 0
 61 2 1 -1.03105 0.98783 30.2802 0 0 0
 62 2 1 -1.18917 0.870977 31.7891 0 0 0
 63 2 1 0.128851 0.723199 32.6374 0 0 0
 64 2 1 -0.101942 0.406765 34.1471 0 0 0
 65 2 1 1.07309 -0.0480033 35.0553 0 0 0
 66 2 1 0.975087 0.253483 36.6108 0 0 0
 67 2 1 1.31768 -0.936772 37.5768 0 0 0
 68 2 1 1.14564 -0.675105 39.1251 0 0 0
 69 2 1 1.64456 -1.55597 40.2124 0 0 0
 70 2 2 1.6895 -0.9516 41.6799 0 0 0
 71 2 2 2.1205 -1.602 42.9777 0 0 0
 72 2 2 1.7859 -0.6745 44.2171 0 0 0

Bonds
 
       1         1         1       2
       2         1         2       3
       3         1         3       4
       4         1         4       5
       5         1         5       6
       6         1         6       7
       7         1         7       8
       8         1         8       9
       9         1         9      10
      10         1        10      11
      11         1        11      12
      12         1        12      13
      13         1        13      14
      14         1        14      15
      15         1        15      16
      16         1        16      17
      17         1        17      18
      18         1        18      19
      19         1        19      20
      20         1        20      21
      21         1        21      22
      22         1        22      23
      23         1        23      24
      24         1        24      25
      25         1        25      26
      26         1        26      27
      27         1        27      28
      28         1        28      29
      29         1        29      30
      30         1        30      31
      31         1        31      32
      32         1        32      33
      33         1        33      34
      34         1        34      35
      35         1        35      36
      36         1        37      38
      37         1        38      39
      38         1        39      40
      39         1        40      41
      40         1        41      42
      41         1        42      43
      42         1        43      44
      43         1        44      45
      44         1        45      46
      45         1        46      47
      46         1        47      48
      47         1        48      49
      48         1        49      50
      49         1        50      51
      50         1        51      52
      51         1        52      53
      52         1        53      54
      53         1        54      55
      54         1        55      56
      55         1        56      57
      56         1        57      58
      57         1        58      59
      58         1        59      60
      59         1        60      61
      60         1        61      62
      61         1        62      63
      62         1        63      64
      63         1        64      65
      64         1        65      66
      65         1        66      67
      66         1        67      68
      67         1        68      69
      68         1        69      70
      69         1        70      71
      70         1        71      72
     

 
Angles
 
           1           1           1           2           3
           2           1           2           3           4
           3           1           3           4           5
           4           1           4           5           6
           5           1           5           6           7
           6           1           6           7           8
           7           1           7           8           9
           8           1           8           9          10
           9           1           9          10          11
          10           1          10          11          12
          11           1          11          12          13
          12           1          12          13          14
          13           1          13          14          15
          14           1          14          15          16
          15           1          15          16          17
          16           1          16          17          18
          17           1          17          18          19
          18           1          18          19          20
          19           1          19          20          21
          20           1          20          21          22
          21           1          21          22          23
          22           1          22          23          24
          23           1          23          24          25
          24           1          24          25          26
          25           1          25          26          27
          26           1          26          27          28
          27           1          27          28          29
          28           1          28          29          30
          29           1          29          30          31
          30           1          30          31          32
          31           1          31          32          33
          32           1          32          33          34
          33           1          33          34          35
          34           1          34          35          36
          35           1          37          38          39
          36           1          38          39          40
          37           1          39          40          41
          38           1          40          41          42
          39           1          41          42          43
          40           1          42          43          44
          41           1          43          44          45
          42           1          44          45          46
          43           1          45          46          47
          44           1          46          47          48
          45           1          47          48          49
          46           1          48          49          50
          47           1          49          50          51
          48           1          50          51          52
          49           1          51          52          53
          50           1          52          53          54
          51           1          53          54          55
          52           1          54          55          56
          53           1          55          56          57
          54           1          56          57          58
          55           1          57          58          59
          56           1          58          59          60
          57           1          59          60          61
          58           1          60          61          62
          59           1          61          62          63
          60           1          62          63          64
          61           1          63          64          65
          62           1          64          65          66
          63           1          65          66          67
          64           1          66          67          68
          65           1          67          68          69
          66           1          68          69          70
          67           1          69          70          71
          68           1          70          71          72

 
Dihedrals
 
           1           1           1           2           3           4
           2           1           2           3           4           5
           3           1           3           4           5           6
           4           1           4           5           6           7
           5           1           5           6           7           8
           6           1           6           7           8           9
           7           1           7           8           9          10
           8           1           8           9          10          11
           9           1           9          10          11          12
          10           1          10          11          12          13
          11           1          11          12          13          14
          12           1          12          13          14          15
          13           1          13          14          15          16
          14           1          14          15          16          17
          15           1          15          16          17          18
          16           1          16          17          18          19
          17           1          17          18          19          20
          18           1          18          19          20          21
          19           1          19          20          21          22
          20           1          20          21          22          23
          21           1          21          22          23          24
          22           1          22          23          24          25
          23           1          23          24          25          26
          24           1          24          25          26          27
          25           1          25          26          27          28
          26           1          26          27          28          29
          27           1          27          28          29          30
          28           1          28          29          30          31
          29           1          29          30          31          32
          30           1          30          31          32          33
          31           1          31          32          33          34
          32           1          32          33          34          35
          33           1          33          34          35          36
          34           1          37          38          39          40
          35           1          38          39          40          41
          36           1          39          40          41          42
          37           1          40          41          42          43
          38           1          41          42          43          44
          39           1          42          43          44          45
          40           1          43          44          45          46
          41           1          44          45          46          47
          42           1          45          46          47          48
          43           1          46          47          48          49
          44           1          47          48          49          50
          45           1          48          49          50          51
          46           1          49          50          51          52
          47           1          50          51          52          53
          48           1          51          52          53          54
          49           1          52          53          54          55
          50           1          53          54          55          56
          51           1          54          55          56          57
          52           1          55          56          57          58
          53           1          56          57          58          59
          54           1          57          58          59          60
          55           1          58          59          60          61
          56           1          59          60          61          62
          57           1          60          61          62          63
          58           1          61          62          63          64
          59           1          62          63          64          65
          60           1          63          64          65          66
          61           1          64          65          66          67
          62           1          65          66          67          68
          63           1          66          67          68          69
          64           1          67          68          69          70
          65           1          68          69          70          71
          66           1          69          70          71          72
