LAMMPS UA chain data file
 
         196  atoms
         194  bonds
         192  angles
         190  dihedrals
           0  impropers
 
           3  atom types
           1  bond types
           1  angle types
           1  dihedral types
           0  improper types
 
    -400.000000     400.000000 xlo xhi
    -400.000000     400.000000 ylo yhi
    -0.050000      124.000000 zlo zhi
 
Masses
 
  1   14.00
  2   14.00
  3   14.00
 
Atoms

 1 1 3 -3.08797 -0.575969 -0.0123858 0 0 0
 2 1 3 -3.0625 -0.0443783 1.54486 0 0 0
 3 1 3 -1.91163 0.604293 2.42033 0 0 0
 4 1 1 -1.84522 1.11383 4.00072 0 0 0
 5 1 1 -0.442326 1.20288 4.95638 0 0 0
 6 1 1 -0.117923 1.22085 6.57156 0 0 0
 7 1 1 0.608609 0.0550612 7.49471 0 0 0
 8 1 1 0.6802 -0.171047 9.12821 0 0 0
 9 1 1 0.0915259 -1.43093 10.1193 0 0 0
 10 1 1 -0.0837277 -1.63494 11.7621 0 0 0
 11 1 1 -1.50639 -1.62635 12.6123 0 0 0
 12 1 1 -1.84971 -1.47467 14.211 0 0 0
 13 1 1 -2.534 -0.211294 15.0527 0 0 0
 14 1 1 -2.58662 0.109972 16.6889 0 0 0
 15 1 1 -1.84252 1.28107 17.6746 0 0 0
 16 1 1 -1.3923 1.35576 19.319 0 0 0
 17 1 1 0.0707036 1.31714 20.0909 0 0 0
 18 1 1 0.353938 1.13587 21.7005 0 0 0
 19 1 1 0.782762 -0.189026 22.6709 0 0 0
 20 1 1 0.689613 -0.458457 24.3368 0 0 0
 21 1 1 -0.193602 -1.50368 25.3013 0 0 0
 22 1 1 -0.531234 -1.63232 26.9182 0 0 0
 23 1 1 -1.85827 -1.2209 27.8109 0 0 0
 24 1 1 -2.12152 -0.981746 29.4203 0 0 0
 25 1 1 -2.5255 0.436998 30.2861 0 0 0
 26 1 1 -2.57406 0.775049 31.9415 0 0 0
 27 1 1 -1.55311 1.67375 32.9128 0 0 0
 28 1 1 -1.28884 1.66087 34.5408 0 0 0
 29 1 1 0.0517759 1.46209 35.4505 0 0 0
 30 1 1 0.155204 1.23528 37.1012 0 0 0
 31 1 1 0.731102 0.00969058 38.0689 0 0 0
 32 1 1 0.753597 -0.417721 39.7195 0 0 0
 33 1 1 -0.263274 -1.33792 40.5744 0 0 0
 34 1 1 -0.546184 -1.43907 42.2226 0 0 0
 35 1 1 -1.84493 -1.02039 43.1454 0 0 0
 36 1 1 -2.17895 -0.704862 44.7572 0 0 0
 37 1 1 -2.47499 0.671476 45.7195 0 0 0
 38 1 1 -2.37052 0.977777 47.3686 0 0 0
 39 1 1 -1.3314 1.85193 48.2874 0 0 0
 40 1 1 -1.14452 1.91327 49.9682 0 0 0
 41 1 1 0.126619 1.33456 50.8614 0 0 0
 42 1 1 0.371913 1.09838 52.4615 0 0 0
 43 1 1 0.652535 -0.302629 53.294 0 0 0
 44 1 1 0.529183 -0.760646 54.8999 0 0 0
 45 1 1 -0.62567 -1.49198 55.8536 0 0 0
 46 1 1 -0.855672 -1.48034 57.4965 0 0 0
 47 1 1 -1.9701 -0.702052 58.3876 0 0 0
 48 1 1 -2.10938 -0.419521 60.0603 0 0 0
 49 1 1 -2.25584 0.967557 60.9791 0 0 0
 50 1 1 -2.04774 1.19546 62.6113 0 0 0
 51 1 1 -0.93679 2.0689 63.5669 0 0 0
 52 1 1 -0.449044 2.04372 65.1482 0 0 0
 53 1 1 0.774867 1.36543 66.0616 0 0 0
 54 1 1 0.88904 1.29284 67.6949 0 0 0
 55 1 1 1.11166 0.00374554 68.7526 0 0 0
 56 1 1 0.93138 -0.316579 70.3477 0 0 0
 57 1 1 -0.241689 -1.04617 71.2485 0 0 0
 58 1 1 -0.568024 -1.09809 72.9062 0 0 0
 59 1 1 -1.66926 -0.26802 73.8539 0 0 0
 60 1 1 -1.87391 -0.0566151 75.4928 0 0 0
 61 1 1 -1.82043 1.32438 76.4096 0 0 0
 62 1 1 -1.49641 1.72903 78.0063 0 0 0
 63 1 1 -0.225069 2.30425 78.9037 0 0 0
 64 1 1 0.197058 2.22643 80.5211 0 0 0
 65 1 1 1.36511 1.37495 81.4032 0 0 0
 66 1 1 1.4672 1.0064 83.0175 0 0 0
 67 1 1 1.13599 -0.363586 83.9463 0 0 0
 68 1 1 0.933062 -0.656824 85.612 0 0 0
 69 1 1 -0.355345 -0.86534 86.6385 0 0 0
 70 1 1 -0.554212 -0.781683 88.2768 0 0 0
 71 1 1 -1.54729 0.165366 89.1559 0 0 0
 72 1 1 -1.53552 0.464773 90.8044 0 0 0
 73 1 1 -1.16594 1.76969 91.7879 0 0 0
 74 1 1 -0.795871 1.94023 93.4368 0 0 0
 75 1 1 0.578073 2.39829 94.2234 0 0 0
 76 1 1 0.935524 2.31242 95.7982 0 0 0
 77 1 1 1.87907 1.3117 96.7207 0 0 0
 78 1 1 2.00128 0.896911 98.3432 0 0 0
 79 1 1 1.56372 -0.392916 99.2654 0 0 0
 80 1 1 1.32816 -0.649308 100.922 0 0 0
 81 1 1 0.00254493 -0.679631 101.887 0 0 0
 82 1 1 -0.231429 -0.668556 103.53 0 0 0
 83 1 1 -0.981067 0.476271 104.457 0 0 0
 84 1 1 -0.906925 0.699495 106.107 0 0 0
 85 1 1 -0.252458 1.8522 107.103 0 0 0
 86 1 1 0.0958547 1.94422 108.731 0 0 0
 87 1 1 1.56808 1.87293 109.572 0 0 0
 88 1 1 1.97795 1.61564 111.138 0 0 0
 89 1 1 2.45229 0.23599 112.047 0 0 0
 90 1 1 2.45172 -0.0191308 113.667 0 0 0
 91 1 1 1.65863 -1.14193 114.614 0 0 0
 92 1 1 1.41669 -1.22551 116.251 0 0 0
 93 1 1 -0.00426849 -1.23141 117.171 0 0 0
 94 1 1 -0.240769 -1.04034 118.818 0 0 0
 95 1 1 -1.33092 -0.101008 119.682 0 0 0
 96 1 2 -1.4379 0.4302 121.245 0 0 0
 97 1 2 -1.3844 -0.678 122.297 0 0 0
 98 1 2 -1.7147 -0.2091 123.87 0 0 0
 99 2 3 1.76657 0.093769 -0.0123858 0 0 0
 100 2 3 0.934501 -0.897909 1.05721 0 0 0
 101 2 3 0.774522 -1.00657 2.68183 0 0 0
 102 2 1 -0.310978 -1.90211 3.65869 0 0 0
 103 2 1 -0.709884 -1.89263 5.28269 0 0 0
 104 2 1 -2.051 -1.4194 6.12903 0 0 0
 105 2 1 -2.32867 -1.16005 7.73252 0 0 0
 106 2 1 -2.48963 0.254922 8.65914 0 0 0
 107 2 1 -2.33983 0.503737 10.3 0 0 0
 108 2 1 -1.34457 1.41682 11.3096 0 0 0
 109 2 1 -0.937848 1.52484 12.9549 0 0 0
 110 2 1 0.292695 0.897342 13.8433 0 0 0
 111 2 1 0.535105 0.540661 15.418 0 0 0
 112 2 1 0.541513 -0.842548 16.3344 0 0 0
 113 2 1 0.331164 -1.18784 17.9454 0 0 0
 114 2 1 -0.947649 -1.69881 18.9237 0 0 0
 115 2 1 -1.22364 -1.5782 20.5746 0 0 0
 116 2 1 -2.36464 -0.879294 21.5595 0 0 0
 117 2 1 -2.45864 -0.580621 23.1084 0 0 0
 118 2 1 -2.17162 0.815701 23.9848 0 0 0
 119 2 1 -1.99857 1.05254 25.6267 0 0 0
 120 2 1 -0.725039 1.55483 26.5174 0 0 0
 121 2 1 -0.391665 1.55754 28.1284 0 0 0
 122 2 1 0.565435 0.620291 29.1551 0 0 0
 123 2 1 0.659601 0.401832 30.8229 0 0 0
 124 2 1 0.226665 -0.949066 31.6914 0 0 0
 125 2 1 -0.0500912 -1.19764 33.2972 0 0 0
 126 2 1 -1.27602 -1.4299 34.3703 0 0 0
 127 2 1 -1.44741 -1.37934 35.9967 0 0 0
 128 2 1 -2.48273 -0.549904 36.9784 0 0 0
 129 2 1 -2.43906 -0.204525 38.5924 0 0 0
 130 2 1 -2.21282 1.13614 39.5023 0 0 0
 131 2 1 -1.83492 1.40146 41.0762 0 0 0
 132 2 1 -0.495414 1.74129 41.9337 0 0 0
 133 2 1 -0.218242 1.73272 43.5996 0 0 0
 134 2 1 0.641573 0.677252 44.5125 0 0 0
 135 2 1 0.702803 0.3138 46.1154 0 0 0
 136 2 1 0.062965 -0.926328 47.0373 0 0 0
 137 2 1 -0.107274 -0.966305 48.67 0 0 0
 138 2 1 -1.48611 -1.29178 49.5528 0 0 0
 139 2 1 -1.74472 -1.12302 51.2026 0 0 0
 140 2 1 -2.52076 -0.0848431 52.2321 0 0 0
 141 2 1 -2.43335 0.239288 53.8044 0 0 0
 142 2 1 -1.82442 1.43531 54.7437 0 0 0
 143 2 1 -1.45518 1.68229 56.2817 0 0 0
 144 2 1 -0.0845387 1.62768 57.2118 0 0 0
 145 2 1 0.274573 1.5839 58.8198 0 0 0
 146 2 1 0.960177 0.359209 59.723 0 0 0
 147 2 1 0.91009 -0.0375741 61.3147 0 0 0
 148 2 1 0.162849 -1.01467 62.3966 0 0 0
 149 2 1 -0.0154596 -1.05291 64.0217 0 0 0
 150 2 1 -1.34646 -1.10139 65.0718 0 0 0
 151 2 1 -1.47324 -0.904598 66.6874 0 0 0
 152 2 1 -2.03866 0.354127 67.5955 0 0 0
 153 2 1 -2.07151 0.688379 69.2424 0 0 0
 154 2 1 -1.2439 1.89452 70.0883 0 0 0
 155 2 1 -0.958453 2.091 71.6931 0 0 0
 156 2 1 0.42617 1.9879 72.6355 0 0 0
 157 2 1 0.833472 2.00359 74.2352 0 0 0
 158 2 1 1.26417 0.737844 75.1623 0 0 0
 159 2 1 1.17489 0.534054 76.7745 0 0 0
 160 2 1 0.568441 -0.730971 77.7351 0 0 0
 161 2 1 0.253638 -0.890802 79.328 0 0 0
 162 2 1 -1.07819 -0.57618 80.2322 0 0 0
 163 2 1 -1.36581 -0.352709 81.8501 0 0 0
 164 2 1 -1.76838 0.966305 82.7758 0 0 0
 165 2 1 -1.62883 1.30032 84.3561 0 0 0
 166 2 1 -0.573445 2.23932 85.1953 0 0 0
 167 2 1 -0.35117 2.32336 86.82 0 0 0
 168 2 1 0.972155 1.99571 87.6979 0 0 0
 169 2 1 1.16101 1.72282 89.326 0 0 0
 170 2 1 1.60607 0.405518 90.2501 0 0 0
 171 2 1 1.65015 0.188784 91.8791 0 0 0
 172 2 1 0.81271 -0.800652 92.8845 0 0 0
 173 2 1 0.677916 -0.872108 94.5117 0 0 0
 174 2 1 -0.704003 -0.504439 95.4299 0 0 0
 175 2 1 -0.914655 -0.216857 97.0917 0 0 0
 176 2 1 -1.26638 1.12332 98.0662 0 0 0
 177 2 1 -1.04439 1.47866 99.6499 0 0 0
 178 2 1 0.125685 2.2855 100.508 0 0 0
 179 2 1 0.539945 2.42349 102.119 0 0 0
 180 2 1 1.82527 1.83739 103.076 0 0 0
 181 2 1 2.06033 1.51261 104.701 0 0 0
 182 2 1 2.16939 0.061752 105.557 0 0 0
 183 2 1 2.05492 -0.242925 107.2 0 0 0
 184 2 1 0.943671 -1.12417 108.09 0 0 0
 185 2 1 0.572751 -1.12013 109.691 0 0 0
 186 2 1 -0.559658 -0.483589 110.708 0 0 0
 187 2 1 -0.724904 -0.230558 112.35 0 0 0
 188 2 1 -0.51287 1.1221 113.316 0 0 0
 189 2 1 -0.384282 1.33149 114.99 0 0 0
 190 2 1 0.807489 1.86065 116.025 0 0 0
 191 2 1 1.0557 1.67018 117.685 0 0 0
 192 2 1 2.31852 1.68166 118.759 0 0 0
 193 2 1 2.41278 0.672759 120.068 0 0 0
 194 2 2 3.4621 0.4302 121.245 0 0 0
 195 2 2 3.5156 -0.678 122.297 0 0 0
 196 2 2 3.1853 -0.2091 123.87 0 0 0

Bonds
 
       1         1         1       2
       2         1         2       3
       3         1         3       4
       4         1         4       5
       5         1         5       6
       6         1         6       7
       7         1         7       8
       8         1         8       9
       9         1         9      10
      10         1        10      11
      11         1        11      12
      12         1        12      13
      13         1        13      14
      14         1        14      15
      15         1        15      16
      16         1        16      17
      17         1        17      18
      18         1        18      19
      19         1        19      20
      20         1        20      21
      21         1        21      22
      22         1        22      23
      23         1        23      24
      24         1        24      25
      25         1        25      26
      26         1        26      27
      27         1        27      28
      28         1        28      29
      29         1        29      30
      30         1        30      31
      31         1        31      32
      32         1        32      33
      33         1        33      34
      34         1        34      35
      35         1        35      36
      36         1        36      37
      37         1        37      38
      38         1        38      39
      39         1        39      40
      40         1        40      41
      41         1        41      42
      42         1        42      43
      43         1        43      44
      44         1        44      45
      45         1        45      46
      46         1        46      47
      47         1        47      48
      48         1        48      49
      49         1        49      50
      50         1        50      51
      51         1        51      52
      52         1        52      53
      53         1        53      54
      54         1        54      55
      55         1        55      56
      56         1        56      57
      57         1        57      58
      58         1        58      59
      59         1        59      60
      60         1        60      61
      61         1        61      62
      62         1        62      63
      63         1        63      64
      64         1        64      65
      65         1        65      66
      66         1        66      67
      67         1        67      68
      68         1        68      69
      69         1        69      70
      70         1        70      71
      71         1        71      72
      72         1        72      73
      73         1        73      74
      74         1        74      75
      75         1        75      76
      76         1        76      77
      77         1        77      78
      78         1        78      79
      79         1        79      80
      80         1        80      81
      81         1        81      82
      82         1        82      83
      83         1        83      84
      84         1        84      85
      85         1        85      86
      86         1        86      87
      87         1        87      88
      88         1        88      89
      89         1        89      90
      90         1        90      91
      91         1        91      92
      92         1        92      93
      93         1        93      94
      94         1        94      95
      95         1        95      96
      96         1        96      97
      97         1        97      98
      98         1        99     100
      99         1       100     101
     100         1       101     102
     101         1       102     103
     102         1       103     104
     103         1       104     105
     104         1       105     106
     105         1       106     107
     106         1       107     108
     107         1       108     109
     108         1       109     110
     109         1       110     111
     110         1       111     112
     111         1       112     113
     112         1       113     114
     113         1       114     115
     114         1       115     116
     115         1       116     117
     116         1       117     118
     117         1       118     119
     118         1       119     120
     119         1       120     121
     120         1       121     122
     121         1       122     123
     122         1       123     124
     123         1       124     125
     124         1       125     126
     125         1       126     127
     126         1       127     128
     127         1       128     129
     128         1       129     130
     129         1       130     131
     130         1       131     132
     131         1       132     133
     132         1       133     134
     133         1       134     135
     134         1       135     136
     135         1       136     137
     136         1       137     138
     137         1       138     139
     138         1       139     140
     139         1       140     141
     140         1       141     142
     141         1       142     143
     142         1       143     144
     143         1       144     145
     144         1       145     146
     145         1       146     147
     146         1       147     148
     147         1       148     149
     148         1       149     150
     149         1       150     151
     150         1       151     152
     151         1       152     153
     152         1       153     154
     153         1       154     155
     154         1       155     156
     155         1       156     157
     156         1       157     158
     157         1       158     159
     158         1       159     160
     159         1       160     161
     160         1       161     162
     161         1       162     163
     162         1       163     164
     163         1       164     165
     164         1       165     166
     165         1       166     167
     166         1       167     168
     167         1       168     169
     168         1       169     170
     169         1       170     171
     170         1       171     172
     171         1       172     173
     172         1       173     174
     173         1       174     175
     174         1       175     176
     175         1       176     177
     176         1       177     178
     177         1       178     179
     178         1       179     180
     179         1       180     181
     180         1       181     182
     181         1       182     183
     182         1       183     184
     183         1       184     185
     184         1       185     186
     185         1       186     187
     186         1       187     188
     187         1       188     189
     188         1       189     190
     189         1       190     191
     190         1       191     192
     191         1       192     193
     192         1       193     194
     193         1       194     195
     194         1       195     196
 
Angles
 
           1           1           1           2           3
           2           1           2           3           4
           3           1           3           4           5
           4           1           4           5           6
           5           1           5           6           7
           6           1           6           7           8
           7           1           7           8           9
           8           1           8           9          10
           9           1           9          10          11
          10           1          10          11          12
          11           1          11          12          13
          12           1          12          13          14
          13           1          13          14          15
          14           1          14          15          16
          15           1          15          16          17
          16           1          16          17          18
          17           1          17          18          19
          18           1          18          19          20
          19           1          19          20          21
          20           1          20          21          22
          21           1          21          22          23
          22           1          22          23          24
          23           1          23          24          25
          24           1          24          25          26
          25           1          25          26          27
          26           1          26          27          28
          27           1          27          28          29
          28           1          28          29          30
          29           1          29          30          31
          30           1          30          31          32
          31           1          31          32          33
          32           1          32          33          34
          33           1          33          34          35
          34           1          34          35          36
          35           1          35          36          37
          36           1          36          37          38
          37           1          37          38          39
          38           1          38          39          40
          39           1          39          40          41
          40           1          40          41          42
          41           1          41          42          43
          42           1          42          43          44
          43           1          43          44          45
          44           1          44          45          46
          45           1          45          46          47
          46           1          46          47          48
          47           1          47          48          49
          48           1          48          49          50
          49           1          49          50          51
          50           1          50          51          52
          51           1          51          52          53
          52           1          52          53          54
          53           1          53          54          55
          54           1          54          55          56
          55           1          55          56          57
          56           1          56          57          58
          57           1          57          58          59
          58           1          58          59          60
          59           1          59          60          61
          60           1          60          61          62
          61           1          61          62          63
          62           1          62          63          64
          63           1          63          64          65
          64           1          64          65          66
          65           1          65          66          67
          66           1          66          67          68
          67           1          67          68          69
          68           1          68          69          70
          69           1          69          70          71
          70           1          70          71          72
          71           1          71          72          73
          72           1          72          73          74
          73           1          73          74          75
          74           1          74          75          76
          75           1          75          76          77
          76           1          76          77          78
          77           1          77          78          79
          78           1          78          79          80
          79           1          79          80          81
          80           1          80          81          82
          81           1          81          82          83
          82           1          82          83          84
          83           1          83          84          85
          84           1          84          85          86
          85           1          85          86          87
          86           1          86          87          88
          87           1          87          88          89
          88           1          88          89          90
          89           1          89          90          91
          90           1          90          91          92
          91           1          91          92          93
          92           1          92          93          94
          93           1          93          94          95
          94           1          94          95          96
          95           1          95          96          97
          96           1          96          97          98
          97           1          99         100         101
          98           1         100         101         102
          99           1         101         102         103
         100           1         102         103         104
         101           1         103         104         105
         102           1         104         105         106
         103           1         105         106         107
         104           1         106         107         108
         105           1         107         108         109
         106           1         108         109         110
         107           1         109         110         111
         108           1         110         111         112
         109           1         111         112         113
         110           1         112         113         114
         111           1         113         114         115
         112           1         114         115         116
         113           1         115         116         117
         114           1         116         117         118
         115           1         117         118         119
         116           1         118         119         120
         117           1         119         120         121
         118           1         120         121         122
         119           1         121         122         123
         120           1         122         123         124
         121           1         123         124         125
         122           1         124         125         126
         123           1         125         126         127
         124           1         126         127         128
         125           1         127         128         129
         126           1         128         129         130
         127           1         129         130         131
         128           1         130         131         132
         129           1         131         132         133
         130           1         132         133         134
         131           1         133         134         135
         132           1         134         135         136
         133           1         135         136         137
         134           1         136         137         138
         135           1         137         138         139
         136           1         138         139         140
         137           1         139         140         141
         138           1         140         141         142
         139           1         141         142         143
         140           1         142         143         144
         141           1         143         144         145
         142           1         144         145         146
         143           1         145         146         147
         144           1         146         147         148
         145           1         147         148         149
         146           1         148         149         150
         147           1         149         150         151
         148           1         150         151         152
         149           1         151         152         153
         150           1         152         153         154
         151           1         153         154         155
         152           1         154         155         156
         153           1         155         156         157
         154           1         156         157         158
         155           1         157         158         159
         156           1         158         159         160
         157           1         159         160         161
         158           1         160         161         162
         159           1         161         162         163
         160           1         162         163         164
         161           1         163         164         165
         162           1         164         165         166
         163           1         165         166         167
         164           1         166         167         168
         165           1         167         168         169
         166           1         168         169         170
         167           1         169         170         171
         168           1         170         171         172
         169           1         171         172         173
         170           1         172         173         174
         171           1         173         174         175
         172           1         174         175         176
         173           1         175         176         177
         174           1         176         177         178
         175           1         177         178         179
         176           1         178         179         180
         177           1         179         180         181
         178           1         180         181         182
         179           1         181         182         183
         180           1         182         183         184
         181           1         183         184         185
         182           1         184         185         186
         183           1         185         186         187
         184           1         186         187         188
         185           1         187         188         189
         186           1         188         189         190
         187           1         189         190         191
         188           1         190         191         192
         189           1         191         192         193
         190           1         192         193         194
         191           1         193         194         195
         192           1         194         195         196
 
Dihedrals
 
           1           1           1           2           3           4
           2           1           2           3           4           5
           3           1           3           4           5           6
           4           1           4           5           6           7
           5           1           5           6           7           8
           6           1           6           7           8           9
           7           1           7           8           9          10
           8           1           8           9          10          11
           9           1           9          10          11          12
          10           1          10          11          12          13
          11           1          11          12          13          14
          12           1          12          13          14          15
          13           1          13          14          15          16
          14           1          14          15          16          17
          15           1          15          16          17          18
          16           1          16          17          18          19
          17           1          17          18          19          20
          18           1          18          19          20          21
          19           1          19          20          21          22
          20           1          20          21          22          23
          21           1          21          22          23          24
          22           1          22          23          24          25
          23           1          23          24          25          26
          24           1          24          25          26          27
          25           1          25          26          27          28
          26           1          26          27          28          29
          27           1          27          28          29          30
          28           1          28          29          30          31
          29           1          29          30          31          32
          30           1          30          31          32          33
          31           1          31          32          33          34
          32           1          32          33          34          35
          33           1          33          34          35          36
          34           1          34          35          36          37
          35           1          35          36          37          38
          36           1          36          37          38          39
          37           1          37          38          39          40