LAMMPS UA chain data file
 
         72  atoms
         70  bonds
         68  angles
         66  dihedrals
           0  impropers
 
           3  atom types
           1  bond types
           1  angle types
           1  dihedral types
           0  improper types
 
    -400.000000     400.000000 xlo xhi
    -400.000000     400.000000 ylo yhi
   -0.050000      45.000000 zlo zhi
 
Masses
 
  1   14.00
  2   14.00
  3   14.00
 
Atoms

 1 1 3 -3.0338 0.368141 -0.00442127 0 0 0
 2 1 3 -1.75427 0.787501 0.952685 0 0 0
 3 1 3 -1.52851 1.05492 2.589 0 0 0
 4 1 1 -0.121334 1.15835 3.48097 0 0 0
 5 1 1 0.145006 0.916972 5.1197 0 0 0
 6 1 1 0.947898 -0.281157 6.03933 0 0 0
 7 1 1 0.977019 -0.790102 7.65236 0 0 0
 8 1 1 -0.0738684 -1.79293 8.53482 0 0 0
 9 1 1 -0.49234 -2.00802 10.121 0 0 0
 10 1 1 -1.84808 -1.5729 11.0152 0 0 0
 11 1 1 -2.11438 -1.10433 12.6344 0 0 0
 12 1 1 -2.08814 0.264481 13.5964 0 0 0
 13 1 1 -1.99113 0.593121 15.2347 0 0 0
 14 1 1 -0.7084 1.04103 16.1772 0 0 0
 15 1 1 -0.416327 0.965263 17.803 0 0 0
 16 1 1 0.587431 -0.00351394 18.7405 0 0 0
 17 1 1 0.649185 -0.573857 20.3135 0 0 0
 18 1 1 0.243691 -1.93495 21.1779 0 0 0
 19 1 1 -0.28401 -2.25177 22.7139 0 0 0
 20 1 1 -1.67235 -2.02724 23.6108 0 0 0
 21 1 1 -2.01868 -1.8601 25.2131 0 0 0
 22 1 1 -2.41556 -0.644242 26.2268 0 0 0
 23 1 1 -2.22049 -0.347365 27.8504 0 0 0
 24 1 1 -1.23294 0.544915 28.8865 0 0 0
 25 1 1 -0.893808 0.503037 30.4801 0 0 0
 26 1 1 0.325548 -0.215611 31.3693 0 0 0
 27 1 1 0.697411 -0.671615 32.9157 0 0 0
 28 1 1 0.585743 -2.09345 33.8683 0 0 0
 29 1 1 0.35842 -2.34787 35.5014 0 0 0
 30 1 1 -0.917442 -2.84605 36.4076 0 0 0
 31 1 1 -1.27505 -2.83347 38.0073 0 0 0
 32 1 1 -2.36224 -1.94774 38.9291 0 0 0
 33 1 1 -2.55221 -1.95051 40.5238 0 0 0
 34 1 2 -3.2105 -0.9516 41.6799 0 0 0
 35 1 2 -2.7795 -1.602 42.9777 0 0 0
 36 1 2 -3.1141 -0.6745 44.2171 0 0 0
 37 2 3 1.7124 -0.850341 -0.00442127 0 0 0
 38 2 3 1.27161 -1.34394 1.4762 0 0 0
 39 2 3 -0.128443 -1.84119 2.13396 0 0 0
 40 2 1 -0.544338 -2.10015 3.75355 0 0 0
 41 2 1 -1.8403 -1.57468 4.65638 0 0 0
 42 2 1 -2.22625 -1.1467 6.27265 0 0 0
 43 2 1 -2.1478 0.208018 7.23624 0 0 0
 44 2 1 -1.91689 0.723164 8.78896 0 0 0
 45 2 1 -0.606693 1.25514 9.69426 0 0 0
 46 2 1 -0.189413 1.12853 11.337 0 0 0
 47 2 1 0.805282 0.0945664 12.1946 0 0 0
 48 2 1 0.8478 -0.492286 13.8115 0 0 0
 49 2 1 0.21588 -1.76949 14.6522 0 0 0
 50 2 1 -0.266768 -1.97116 16.2602 0 0 0
 51 2 1 -1.65623 -1.87485 17.152 0 0 0
 52 2 1 -2.07199 -1.67472 18.7334 0 0 0
 53 2 1 -2.5437 -0.371563 19.6427 0 0 0
 54 2 1 -2.26034 0.078159 21.2473 0 0 0
 55 2 1 -1.21697 0.888781 22.3339 0 0 0
 56 2 1 -0.54767 0.938665 23.8349 0 0 0
 57 2 1 0.509724 0.0501607 24.8153 0 0 0
 58 2 1 0.694491 -0.412605 26.3894 0 0 0
 59 2 1 0.441698 -1.78212 27.281 0 0 0
 60 2 1 0.143409 -2.27504 28.8579 0 0 0
 61 2 1 -1.23996 -2.64209 29.7782 0 0 0
 62 2 1 -1.64031 -2.58624 31.3535 0 0 0
 63 2 1 -2.37193 -1.54639 32.3162 0 0 0
 64 2 1 -2.3715 -1.1856 33.9279 0 0 0
 65 2 1 -1.75582 0.0308149 34.8646 0 0 0
 66 2 1 -1.37073 0.31928 36.5296 0 0 0
 67 2 1 0.0145593 0.160254 37.541 0 0 0
 68 2 1 0.355528 0.104327 39.1869 0 0 0
 69 2 1 1.22051 -1.00943 40.0739 0 0 0
 70 2 2 1.6895 -0.9516 41.6799 0 0 0
 71 2 2 2.1205 -1.602 42.9777 0 0 0
 72 2 2 1.7859 -0.6745 44.2171 0 0 0

Bonds
 
       1         1         1       2
       2         1         2       3
       3         1         3       4
       4         1         4       5
       5         1         5       6
       6         1         6       7
       7         1         7       8
       8         1         8       9
       9         1         9      10
      10         1        10      11
      11         1        11      12
      12         1        12      13
      13         1        13      14
      14         1        14      15
      15         1        15      16
      16         1        16      17
      17         1        17      18
      18         1        18      19
      19         1        19      20
      20         1        20      21
      21         1        21      22
      22         1        22      23
      23         1        23      24
      24         1        24      25
      25         1        25      26
      26         1        26      27
      27         1        27      28
      28         1        28      29
      29         1        29      30
      30         1        30      31
      31         1        31      32
      32         1        32      33
      33         1        33      34
      34         1        34      35
      35         1        35      36
      36         1        37      38
      37         1        38      39
      38         1        39      40
      39         1        40      41
      40         1        41      42
      41         1        42      43
      42         1        43      44
      43         1        44      45
      44         1        45      46
      45         1        46      47
      46         1        47      48
      47         1        48      49
      48         1        49      50
      49         1        50      51
      50         1        51      52
      51         1        52      53
      52         1        53      54
      53         1        54      55
      54         1        55      56
      55         1        56      57
      56         1        57      58
      57         1        58      59
      58         1        59      60
      59         1        60      61
      60         1        61      62
      61         1        62      63
      62         1        63      64
      63         1        64      65
      64         1        65      66
      65         1        66      67
      66         1        67      68
      67         1        68      69
      68         1        69      70
      69         1        70      71
      70         1        71      72
     

 
Angles
 
           1           1           1           2           3
           2           1           2           3           4
           3           1           3           4           5
           4           1           4           5           6
           5           1           5           6           7
           6           1           6           7           8
           7           1           7           8           9
           8           1           8           9          10
           9           1           9          10          11
          10           1          10          11          12
          11           1          11          12          13
          12           1          12          13          14
          13           1          13          14          15
          14           1          14          15          16
          15           1          15          16          17
          16           1          16          17          18
          17           1          17          18          19
          18           1          18          19          20
          19           1          19          20          21
          20           1          20          21          22
          21           1          21          22          23
          22           1          22          23          24
          23           1          23          24          25
          24           1          24          25          26
          25           1          25          26          27
          26           1          26          27          28
          27           1          27          28          29
          28           1          28          29          30
          29           1          29          30          31
          30           1          30          31          32
          31           1          31          32          33
          32           1          32          33          34
          33           1          33          34          35
          34           1          34          35          36
          35           1          37          38          39
          36           1          38          39          40
          37           1          39          40          41
          38           1          40          41          42
          39           1          41          42          43
          40           1          42          43          44
          41           1          43          44          45
          42           1          44          45          46
          43           1          45          46          47
          44           1          46          47          48
          45           1          47          48          49
          46           1          48          49          50
          47           1          49          50          51
          48           1          50          51          52
          49           1          51          52          53
          50           1          52          53          54
          51           1          53          54          55
          52           1          54          55          56
          53           1          55          56          57
          54           1          56          57          58
          55           1          57          58          59
          56           1          58          59          60
          57           1          59          60          61
          58           1          60          61          62
          59           1          61          62          63
          60           1          62          63          64
          61           1          63          64          65
          62           1          64          65          66
          63           1          65          66          67
          64           1          66          67          68
          65           1          67          68          69
          66           1          68          69          70
          67           1          69          70          71
          68           1          70          71          72

 
Dihedrals
 
           1           1           1           2           3           4
           2           1           2           3           4           5
           3           1           3           4           5           6
           4           1           4           5           6           7
           5           1           5           6           7           8
           6           1           6           7           8           9
           7           1           7           8           9          10
           8           1           8           9          10          11
           9           1           9          10          11          12
          10           1          10          11          12          13
          11           1          11          12          13          14
          12           1          12          13          14          15
          13           1          13          14          15          16
          14           1          14          15          16          17
          15           1          15          16          17          18
          16           1          16          17          18          19
          17           1          17          18          19          20
          18           1          18          19          20          21
          19           1          19          20          21          22
          20           1          20          21          22          23
          21           1          21          22          23          24
          22           1          22          23          24          25
          23           1          23          24          25          26
          24           1          24          25          26          27
          25           1          25          26          27          28
          26           1          26          27          28          29
          27           1          27          28          29          30
          28           1          28          29          30          31
          29           1          29          30          31          32
          30           1          30          31          32          33
          31           1          31          32          33          34
          32           1          32          33          34          35
          33           1          33          34          35          36
          34           1          37          38          39          40
          35           1          38          39          40          41
          36           1          39          40          41          42
          37           1          40          41          42          43
          38           1          41          42          43          44
          39           1          42          43          44          45
          40           1          43          44          45          46
          41           1          44          45          46          47
          42           1          45          46          47          48
          43           1          46          47          48          49
          44           1          47          48          49          50
          45           1          48          49          50          51
          46           1          49          50          51          52
          47           1          50          51          52          53
          48           1          51          52          53          54
          49           1          52          53          54          55
          50           1          53          54          55          56
          51           1          54          55          56          57
          52           1          55          56          57          58
          53           1          56          57          58          59
          54           1          57          58          59          60
          55           1          58          59          60          61
          56           1          59          60          61          62
          57           1          60          61          62          63
          58           1          61          62          63          64
          59           1          62          63          64          65
          60           1          63          64          65          66
          61           1          64          65          66          67
          62           1          65          66          67          68
          63           1          66          67          68          69
          64           1          67          68          69          70
          65           1          68          69          70          71
          66           1          69          70          71          72
