LAMMPS (16 Mar 2018)
# 1. INITIALIZATION
#allows pair, bond, bending and dihedral interactions
atom_style molecular

  # periodic (video game) boundaries in all cartesian directions
boundary p p s

  # uses real units (instead of units based on pair potential parameters).  List of units used in manual
units real

###########
# 2. ATOM DEFINITION
##########

   ##
   # Read in data from starting configuration file
   ##

#read_data chainconfig.dat

 #use to restart
read_restart RESTART
  orthogonal box = (-400 -400 -0.0371672) to (400 400 123.895)
  2 by 2 by 1 MPI processor grid
  196 atoms
  194 bonds
  192 angles
  190 dihedrals
  2 = max # of 1-2 neighbors
  2 = max # of 1-3 neighbors
  4 = max # of 1-4 neighbors
  6 = max # of special neighbors

   ##
   # Specify the nature of the bond interactions
   ##


bond_style harmonic
bond_coeff 1 450 1.54

special_bonds lj 0.0 0.0 0.0 angle no dihedral no

angle_style harmonic
angle_coeff 1 62.1  114.00

dihedral_style opls
dihedral_coeff * 1.4110 -0.2708 3.143 0.0

mass * 14.0

pair_style lj/cut 14.0
pair_coeff 1 1 0.0912 3.95 14.0
#pair_modify tail yes

group twistables type 3
6 atoms in group twistables
group freeze type 2
6 atoms in group freeze
fix startend freeze setforce 0.0 0.0 0.0
fix startend0 twistables setforce 0.0 0.0 0.0

################
# 3.  Simulation Settings
###############

neighbor        2.0 bin
neigh_modify    every 1 delay 0 check yes



# Define some variables
variable Lx          equal xhi-xlo   # Ang
variable Ly          equal yhi-ylo   # Ang
variable Lz          equal zhi-zlo   # Ang

variable dz          equal ${Lz}/30  # Ang
variable dz          equal 123.931948666893/30  

variable zzlo        equal zlo+0.05  # Ang
variable zzhi        equal zhi  # Ang
variable vol         equal ${Lx}*${Ly}*${Lz}  # Ang^3
variable vol         equal 800*${Ly}*${Lz}  
variable vol         equal 800*800*${Lz}  
variable vol         equal 800*800*123.931948666893  
variable TEMP        equal 300.00 # K
variable TThi        equal 320.00 # K
variable TTlo        equal 280.00 # K
variable dt          equal 1.25 # fs

timestep     ${dt}
timestep     1.25

variable zlo1      equal ${zzlo}+2.7
variable zlo1      equal 0.0128327665533126+2.7
variable zlo2      equal ${zzlo}+8.4
variable zlo2      equal 0.0128327665533126+8.4
variable zhi1      equal ${zzlo}+115.5
variable zhi1      equal 0.0128327665533126+115.5
variable zhi2      equal ${zzlo}+121
variable zhi2      equal 0.0128327665533126+121

# heat layers

region          hot  block  INF INF INF INF ${zlo1} ${zlo2}
region          hot  block  INF INF INF INF 2.71283276655331 ${zlo2}
region          hot  block  INF INF INF INF 2.71283276655331 8.41283276655331
region          cold block INF INF INF INF ${zhi1} ${zhi2}
region          cold block INF INF INF INF 115.512832766553 ${zhi2}
region          cold block INF INF INF INF 115.512832766553 121.012832766553
compute         Thot all temp/region hot
compute         Tcold all temp/region cold


# 1st equilibration run
fix             1 all nvt temp ${TEMP} ${TEMP} 50
fix             1 all nvt temp 300 ${TEMP} 50
fix             1 all nvt temp 300 300 50
thermo          100
run             8000
Unused restart file peratom fix info:
  fix style: STORE, fix ID: layers_COMPUTE_STORE
Neighbor list info ...
  update every 1 steps, delay 0 steps, check yes
  max neighbors/atom: 2000, page size: 100000
  master list distance cutoff = 16
  ghost atom cutoff = 16
  binsize = 8, bins = 100 100 16
  1 neighbor lists, perpetual/occasional/extra = 1 0 0
  (1) pair lj/cut, perpetual
      attributes: half, newton on
      pair build: half/bin/newton
      stencil: half/bin/3d/newton
      bin: standard
Per MPI rank memory allocation (min/avg/max) = 9.015 | 9.109 | 9.389 Mbytes
Step Temp E_pair E_mol TotEng Press Volume 
134452000    283.40605    7923.2977    15728.931    23816.961   -8.4413918     79316447 
134452100     318.3259    8006.5366    15658.573    23850.139   -7.9803303     79316447 
134452200    292.15902    7891.3009    15769.213    23830.334   -8.6136806     79316447 
134452300    301.79726    8007.7199    15633.344    23816.486   -7.9562277     79316447 
134452400    309.26119    7932.8013    15729.332    23841.894   -8.4019505     79316447 
134452500    285.35169    7969.9062    15673.993    23809.762    -8.179097     79316447 
134452600    315.09072    7940.5914    15716.823    23840.563   -8.3387327     79316447 
134452700    280.19606    7949.0105      15709.7    23821.577   -8.2992531     79316447 
134452800    266.60194      7942.25    15717.753    23814.968   -8.3542279     79316447 
134452900    298.36469    7964.1682    15701.347    23838.942   -8.2528779     79316447 
134453000    280.88337    7940.7982    15710.657    23814.721   -8.3380202     79316447 
134453100    329.39554    7950.9207    15705.442    23847.827   -8.2808783     79316447 
134453200    282.44208    7948.1359     15703.45    23815.757   -8.2988577     79316447 
134453300    306.05802    7934.3683    15730.006    23842.273   -8.3854463     79316447 
134453400    289.85038    8017.5933    15641.084    23827.155   -7.9377844     79316447 
134453500    302.19776    7911.2962    15756.891    23843.842   -8.5029131     79316447 
134453600    272.62991    7981.5232    15671.417    23811.408   -8.1244481     79316447 
134453700    324.45599    7938.9253     15717.09    23844.608   -8.3451239     79316447 
134453800    336.37345    7999.6909    15673.036    23868.246   -8.0279189     79316447 
134453900    309.50495    7929.1826    15708.288    23817.373   -8.3750836     79316447 
134454000    326.23388    7959.1467    15694.581    23843.354   -8.2333449     79316447 
134454100     301.6847    7870.7515    15767.247    23813.355   -8.6888981     79316447 
134454200    290.99871    8024.4643    15641.725    23835.334   -7.8991915     79316447 
134454300    319.40252    7859.8708    15780.406    23825.932   -8.7361769     79316447 
134454400    307.76573    8004.4208    15640.337     23823.65   -7.9807726     79316447 
134454500    296.17098     7891.164    15768.771    23832.087   -8.6054496     79316447 
134454600    325.85419    8004.1418    15659.408    23852.955   -8.0037943     79316447 
134454700    312.44438    7882.8272     15762.04    23826.478   -8.6228495     79316447 
134454800    303.92197    7987.6145    15653.053    23817.324   -8.0643482     79316447 
134454900    309.73864    7931.8756    15729.253    23841.167   -8.3793481     79316447 
134455000     292.0634    7941.0732    15708.053     23818.89   -8.3238894     79316447 
134455100    327.14257     7974.037     15667.72    23831.911   -8.1378321     79316447 
134455200    296.12174    7903.5883    15749.583    23825.294   -8.5229535     79316447 
134455300    273.28115    7970.9369    15680.265    23810.049   -8.1799756     79316447 
134455400     322.9686    7925.5832    15722.051    23835.362   -8.4137632     79316447 
134455500    310.70525    7982.7291    15645.791     23809.12   -8.0843386     79316447 
134455600    294.42204    7890.8932    15760.436    23822.464   -8.6060143     79316447 
134455700    315.32394    7996.0403    15647.497    23826.822   -8.0193026     79316447 
134455800    288.38751    7888.1416    15752.409    23808.178   -8.6152934     79316447 
134455900     318.8581    8031.6457    15627.972    23844.957   -7.8430989     79316447 
134456000    280.47893    7875.2215    15771.739    23809.991    -8.679114     79316447 
134456100    293.47201    8023.4619    15636.658    23830.702   -7.9124847     79316447 
134456200    279.11366    7856.1368    15801.589    23819.963   -8.7962672     79316447 
134456300    299.71589    8046.4926    15607.084    23827.789   -7.7585403     79316447 
134456400    301.16972    7847.0067    15809.877    23831.941   -8.8267312     79316447 
134456500    270.08343    8035.5598    15613.195    23805.743   -7.8288473     79316447 
134456600     297.1186    7849.7229    15811.992    23834.417   -8.8359301     79316447 
134456700     331.4916     8057.447    15603.867    23853.997   -7.7237672     79316447 
134456800    293.37333    7834.8243      15807.9     23813.25   -8.8977104     79316447 
134456900     329.0721     8055.407    15601.154    23847.836   -7.7251669     79316447 
134457000    290.24618    7880.3396    15780.952    23829.999   -8.6755116     79316447 
134457100     317.8753    7987.0518    15669.657    23841.477   -8.0745735     79316447 
134457200    296.34206    7886.6451     15769.18    23828.076   -8.6305745     79316447 
134457300    298.74403    7983.7613    15664.551     23821.96    -8.093877     79316447 
134457400    337.89473    7904.8515    15756.052    23857.308   -8.5344907     79316447 
134457500     282.3372    7972.6988    15688.342    23825.152   -8.1764055     79316447 
134457600    298.04467    7961.3261     15697.27    23831.837   -8.2271089     79316447 
134457700     279.5855    7954.1639    15696.062    23812.737   -8.2625818     79316447 
134457800     319.3599    7929.8305    15730.556    23846.017    -8.392132     79316447 
134457900    272.39486    7944.7072    15700.758    23803.797   -8.3078663     79316447 
134458000    264.82472     7961.746    15674.717    23790.395   -8.2214193     79316447 
134458100    300.04676    7903.0762    15758.346    23835.826    -8.532941     79316447 
134458200    318.79057    7970.0274    15665.179    23820.506   -8.1556655     79316447 
134458300    276.37836    7857.8728    15806.237    23824.757   -8.7919789     79316447 
134458400    299.53877    8054.4116    15602.044    23830.565   -7.7252465     79316447 
134458500    303.36372    7850.8797    15805.145    23832.357   -8.8245224     79316447 
134458600       313.74    8014.2376     15633.99    23830.592   -7.9404434     79316447 
134458700     305.5937    7824.7149    15822.338    23824.682   -8.9502558     79316447 
134458800    332.77755    8050.1006    15609.324    23852.854   -7.7442534     79316447 
134458900    308.67955    7813.4235    15831.972    23824.817   -9.0016242     79316447 
134459000    273.03093    8079.5647    15590.251    23828.517   -7.6166461     79316447 
134459100    309.50457    7795.8084    15870.207    23845.917   -9.1229214     79316447 
134459200    283.78802    8094.6852    15559.277    23818.916   -7.5292859     79316447 
134459300    313.07024    7790.0189    15859.687     23831.68    -9.132317     79316447 
134459400    279.24421    8094.7813    15550.834    23807.928   -7.5178098     79316447 
134459500    285.56623    7808.4646     15858.91    23833.362   -9.0604402     79316447 
134459600    285.48425    8072.3422    15591.045    23829.327     -7.63538     79316447 
134459700    284.99627     7813.679    15827.901    23807.237   -9.0041481     79316447 
134459800    274.78011    8113.3111    15553.731     23826.76   -7.4436878     79316447 
134459900    266.46162    7806.4022    15870.463    23831.748   -9.1002721     79316447 
134460000    294.12578     8113.342    15547.628    23831.933   -7.4299247     79316447 
Loop time of 0.487056 on 4 procs for 8000 steps with 196 atoms

Performance: 1773.925 ns/day, 0.014 hours/ns, 16425.227 timesteps/s
99.8% CPU use with 4 MPI tasks x no OpenMP threads

MPI task timing breakdown:
Section |  min time  |  avg time  |  max time  |%varavg| %total
---------------------------------------------------------------
Pair    | 0.11344    | 0.12402    | 0.13387    |   2.5 | 25.46
Bond    | 0.17328    | 0.20841    | 0.24719    |   6.5 | 42.79
Neigh   | 0.0010996  | 0.0011152  | 0.0011306  |   0.0 |  0.23
Comm    | 0.068105   | 0.11575    | 0.1558     |   9.2 | 23.77
Output  | 0.0008626  | 0.00090802 | 0.001039   |   0.0 |  0.19
Modify  | 0.021513   | 0.026207   | 0.030529   |   2.0 |  5.38
Other   |            | 0.01064    |            |       |  2.18

Nlocal:    49 ave 51 max 45 min
Histogram: 1 0 0 0 0 0 1 0 0 2
Nghost:    147 ave 151 max 145 min
Histogram: 2 0 0 1 0 0 0 0 0 1
Neighs:    977.5 ave 1117 max 854 min
Histogram: 1 0 0 1 0 1 0 0 0 1

Total # of neighbors = 3910
Ave neighs/atom = 19.949
Ave special neighs/atom = 5.87755
Neighbor list builds = 13
Dangerous builds = 0
velocity        all scale ${TEMP}
velocity        all scale 300
unfix           1

# Second Equilibration
fix             1 all nve
fix             hot all langevin ${TThi} ${TThi}  50.0 599804  tally yes
fix             hot all langevin 320 ${TThi}  50.0 599804  tally yes
fix             hot all langevin 320 320  50.0 599804  tally yes
fix             cold all langevin ${TTlo} ${TTlo} 50.0 27859 tally yes
fix             cold all langevin 280 ${TTlo} 50.0 27859 tally yes
fix             cold all langevin 280 280 50.0 27859 tally yes
fix_modify      hot temp Thot
fix_modify      cold temp Tcold


variable        tdiff equal c_Thot-c_Tcold
thermo_style    custom step c_Thot c_Tcold f_hot f_cold v_tdiff
thermo          4000
run             1600000
Per MPI rank memory allocation (min/avg/max) = 10.14 | 10.14 | 10.14 Mbytes
Step c_Thot c_Tcold f_hot f_cold v_tdiff 
134460000    291.74758     353.2999           -0           -0   -61.552316 
134464000    245.08918    293.27062   -15.955294    38.157162   -48.181435 
134468000    423.07381    245.34781   -14.264935    53.395114      177.726 
134472000    398.66193    435.60325   -92.154743    96.057576   -36.941317 
134476000    295.17692    403.43754   -133.21297    143.82358   -108.26061 
134480000    400.54491    263.12698    -189.4919    214.70708    137.41793 
134484000    509.41655    439.16784   -250.37407    241.90166    70.248711 
134488000    334.76822    237.97357   -256.39882    306.57511    96.794647 
134492000    536.32614    394.85601   -305.26848    307.13876    141.47014 
134496000    265.74216    265.40917   -357.29486    412.46979   0.33298908 
134500000    295.22617    172.28282   -388.95678    440.07214    122.94336 
134504000    223.92362    315.94786   -410.50915    452.93265   -92.024246 
134508000    203.23445     234.5162   -474.89997    501.56506   -31.281748 
134512000    365.56878    385.56078   -565.53026    593.20384   -19.992003 
134516000     422.1249    326.60814   -641.33293    647.30216    95.516762 
134520000    283.25131     225.8707   -648.46982    686.05245    57.380603 
134524000    311.17367    382.66244   -649.34752    698.92663   -71.488769 
134528000    367.46973    309.48797   -714.29131    724.61117     57.98176 
134532000    368.62474    411.13361   -727.21196    759.58422   -42.508867 
134536000      258.205    328.09477   -751.23387    778.20058   -69.889775 
134540000    300.01109    421.76444    -760.5346    783.41421   -121.75336 
134544000    419.28597     347.7965   -792.86338    811.92601    71.489475 
134548000    313.99922    282.00262     -799.313    841.65798    31.996605 
134552000    156.08534    385.04599   -823.11346    863.60506   -228.96065 
134556000    554.43035    318.40583   -890.09703    890.54659    236.02452 
134560000    388.99831    257.12139   -917.18293    949.97136    131.87693 
134564000    393.91084    427.72425   -929.95126    957.91271   -33.813408 
134568000     555.9881    272.57083   -972.73701     990.4906    283.41727 
134572000    407.20933    247.48096   -1016.5873     1056.135    159.72837 
134576000    255.85855    329.54551   -1058.9386    1111.0922   -73.686957 
134580000    309.48853    278.82019   -1116.8977    1140.2202    30.668343 
134584000    231.45089    301.96055   -1152.7005    1164.9485   -70.509661 
134588000    352.10279    224.43559   -1181.7045    1198.8093     127.6672 
134592000    449.22689    199.78675   -1206.3896    1250.2331    249.44014 
134596000    322.79215     392.8275   -1236.2685    1270.4631   -70.035349 
134600000    341.02189    366.30209   -1267.8086    1298.2331   -25.280196 
134604000    333.55451    322.41235   -1313.4105    1337.3908    11.142157 
134608000    467.49676    274.54524   -1335.1413    1367.9872    192.95152 
134612000    216.17086    258.04887   -1356.3419    1404.4769   -41.878004 
134616000    181.62669    368.02996   -1354.4068     1400.425   -186.40327 
134620000    281.35414     318.8729   -1412.9528      1422.45   -37.518758 
134624000     494.6914    237.94915   -1458.7393    1478.8236    256.74224 
134628000    281.25565    231.44637   -1504.0971    1513.3259     49.80928 
134632000    319.91462    440.75089   -1500.0789    1524.4251   -120.83627 
134636000    530.23234    398.13699   -1538.2288    1568.7515    132.09535 
134640000    476.82532    351.73057   -1584.9162     1620.861    125.09475 
134644000     396.6883    215.38602    -1615.321    1643.3944    181.30228 
134648000    231.40526    238.92213    -1640.497    1678.1118   -7.5168724 
134652000    264.02557    430.80084   -1652.6736    1681.8181   -166.77526 
134656000    449.67535    420.03068   -1695.3835    1731.4579    29.644666 
134660000    360.39472    445.91364   -1717.9661    1762.6997   -85.518918 
134664000    514.78083    154.87838   -1784.9334    1790.9737    359.90244 
134668000    328.63548    450.24002   -1822.5347    1869.3084   -121.60453 
134672000    261.48526    270.41702   -1855.9423    1893.8541   -8.9317638 
134676000     284.8562    206.32649   -1871.1633    1902.2221    78.529716 
134680000    459.85088    296.72545   -1922.6471    1947.8314    163.12544 
134684000    233.92981    265.29163   -1941.0519    1981.6434   -31.361812 
134688000    362.26947     238.0425   -1989.5332    2009.4512    124.22696 
134692000    529.45736    319.71914   -2005.3752    2013.4583    209.73821 
134696000    241.59431    352.69369   -2000.7997    2049.4596   -111.09938 
134700000    343.70714    325.62608   -2032.5983    2074.4274    18.081064 
134704000    310.64999    262.57369   -2074.0439    2097.5101    48.076301 
134708000    318.73359    278.41398   -2101.4997    2135.5601    40.319613 
134712000    369.36928    210.81774   -2135.5551     2154.777    158.55155 
134716000    359.73489    394.36291   -2189.6262    2186.4094   -34.628026 
134720000     304.4467     380.7185   -2226.0558     2247.961   -76.271803 
134724000    386.29776    439.58233   -2265.7755    2287.2336   -53.284568 
134728000    279.82479    361.28417   -2268.4926    2293.3866   -81.459378 
134732000     339.2401    511.61962   -2340.2947    2369.2437   -172.37952 
134736000     326.3848    247.77808   -2371.1009    2404.0171    78.606712 
134740000    227.68783    331.60196   -2372.1416    2388.2549   -103.91413 
134744000    266.39188    173.45997   -2377.5802    2425.6691    92.931902 
134748000    352.40728     429.5052   -2424.7823    2445.6085    -77.09792 
134752000    396.99784    342.03585   -2445.9028    2489.0963    54.961997 
134756000    226.26565    365.95396   -2519.6153    2524.5221   -139.68831 
134760000    226.79827     394.4477   -2539.1525    2568.1013   -167.64943 
134764000    329.45612     345.5527    -2560.762    2594.9509   -16.096579 
134768000    369.45051    334.81639   -2580.6076    2634.4185    34.634127 
134772000    502.59401    193.76358   -2623.7645    2663.8981    308.83042 
134776000    288.79592    384.92632   -2688.0049    2726.6565   -96.130394 
134780000    365.94532    422.94175   -2739.5119    2768.8181   -56.996432 
134784000    438.53639     304.5365   -2788.2606    2834.7488    133.99989 
134788000    307.87807    344.77299   -2810.4908    2815.6667   -36.894922 
134792000    359.70032    404.18593   -2833.7921     2845.784   -44.485608 
134796000    256.29796    200.84268   -2870.4863    2911.8259    55.455288 
134800000    206.01297    525.84533    -2908.243     2941.715   -319.83237 
134804000    426.49516    350.05813     -2969.33    2994.1136    76.437029 
134808000    286.56427    488.48609   -2983.0412    3010.4594   -201.92182 
134812000    335.52183    292.54888   -2995.0343    3039.3099    42.972951 
134816000    472.89674    526.33555   -3038.2104    3057.3397   -53.438816 
134820000     395.2543     228.0035   -3059.6063    3093.7486    167.25081 
134824000    456.66642    255.37878   -3133.2966    3143.9536    201.28764 
134828000    310.32692    481.43617   -3167.4886    3188.5338   -171.10925 
134832000    395.05211    318.63312   -3220.4002     3235.404    76.418992 
134836000    235.24699    376.21951   -3233.4194    3247.8171   -140.97253 
134840000    407.61883    373.41416   -3257.8232    3275.3004     34.20467 
134844000    237.83956    202.44651   -3292.0971    3343.6461    35.393051 
134848000    416.44526    176.53625   -3328.0846    3366.9623    239.90901 
134852000    329.40744    352.73911   -3375.5736    3407.6715   -23.331671 
134856000    306.23393     196.8822   -3432.3935    3452.9513    109.35173 
134860000    515.07732     349.1799   -3462.0528    3481.7639    165.89742 
134864000    256.11045    322.41202   -3476.2754    3497.6805   -66.301562 
134868000    253.61508    312.10416   -3481.4594    3519.8672    -58.48908 
134872000    373.63015    298.48898    -3513.736    3536.2066    75.141171 
134876000    366.32482    365.96339   -3582.3631    3610.0493   0.36142772 
134880000    294.34742    332.01951   -3617.7987    3642.3574   -37.672082 
134884000    298.27324    382.32662   -3630.3424    3667.2537   -84.053376 
134888000    208.92372    421.02663   -3696.8326     3721.891   -212.10291 
134892000    328.04995    390.28702   -3735.0694    3760.6989   -62.237065 
134896000    367.92148     468.2596   -3794.7439    3834.7648   -100.33812 
134900000     441.2798    256.33614   -3810.6512    3854.3229    184.94366 
134904000    327.82449    339.18064   -3844.6569    3883.0191   -11.356145 
134908000     330.5121    199.22088   -3887.9003    3919.3867    131.29122 
134912000    268.32805    267.95965   -3958.6697    3995.1895   0.36840694 
134916000    345.22877    470.64049   -4005.2597    4024.5464   -125.41173 
134920000     300.4017    258.41018   -4023.3675    4064.0284    41.991518 
134924000    360.57397    363.48282   -4073.9486    4096.8073   -2.9088431 
134928000    457.46717    412.95191   -4080.9824    4099.6487    44.515268 
134932000     401.7819    247.90892   -4116.1294    4144.7356    153.87298 
134936000    376.52081      303.332   -4179.6397    4214.0519    73.188811 
134940000    490.95816    211.00904   -4241.0528    4259.5527    279.94912 
134944000    225.69805    388.93948   -4263.8847    4289.7865   -163.24143 
134948000    361.23579    282.09252   -4301.7929    4319.9375    79.143276 
134952000    238.26698      341.258   -4357.5403     4352.934   -102.99102 
134956000    360.95328    565.71836   -4401.6841    4416.4806   -204.76508 
134960000    390.89988    209.06759   -4418.2484     4459.032    181.83228 
134964000    281.93061    255.06827   -4451.4285     4498.722     26.86234 
134968000    397.56974    346.90526   -4483.1497    4522.4566    50.664486 
134972000    234.75824    209.05971    -4545.033    4567.9751    25.698521 
134976000    494.47147    468.19132   -4606.3296    4628.7513    26.280146 
134980000    204.16308    231.84406   -4667.3329    4711.6562   -27.680975 
134984000    257.10281    199.05458   -4691.0763    4744.3355    58.048233 
134988000    333.63257    175.56216   -4721.5413    4755.0414    158.07041 
134992000    489.55364    305.53747   -4781.5566    4787.4512    184.01617 
134996000    225.92448    391.11051   -4800.6682    4818.5356   -165.18603 
135000000    311.90545    185.45966   -4834.3568    4866.2092    126.44579 
135004000    439.35605     427.6256   -4875.3045    4895.5655    11.730452 
135008000    506.30161    351.43037   -4931.1052    4944.6737    154.87124 
135012000    366.67596    394.59127   -4953.5546    4985.0314   -27.915312 
135016000    357.59169     436.1882   -5017.1938    5033.8141   -78.596508 
135020000    394.17205     317.5884   -5079.1523     5119.397    76.583644 
135024000    356.14323    324.43713    -5138.077     5170.856    31.706098 
135028000    352.38655    332.08246   -5182.7267    5200.5201    20.304087 
135032000    414.00575     209.0239   -5243.9997    5260.5989    204.98185 
135036000    282.59747    316.95912   -5303.0995    5315.3446   -34.361648 
135040000    199.28394    333.10246   -5350.5196    5383.5775   -133.81853 
135044000    498.08865    386.70673   -5383.0236    5403.0538    111.38192 
135048000    313.55673    244.54323   -5384.0874    5428.4105    69.013493 
135052000    331.24439    416.44354   -5457.4095     5498.498   -85.199147 
135056000    366.28414    317.16736    -5490.472    5528.1077     49.11678 
135060000    492.86364    341.01714   -5553.5485    5561.7356    151.84651 
135064000    266.45347    268.71979   -5604.9819    5630.8799   -2.2663249 
135068000    391.00654      202.996   -5646.9071    5660.7802    188.01054 
135072000    440.95678    363.41729   -5640.2267    5681.1362     77.53949 
135076000    391.78842    465.41815   -5699.9215    5713.9784   -73.629731 
135080000    414.77219    241.11658   -5743.1176    5781.2784    173.65561 
135084000    429.05838    287.85807     -5752.49    5773.2224    141.20031 
135088000    494.84999     215.2647   -5768.6247    5807.6731     279.5853 
135092000    372.36424    325.89263   -5816.1403    5833.1494    46.471608 
135096000    336.50547    230.27144   -5859.3811    5896.0471    106.23403 
135100000    383.09694    245.68082   -5936.2451    5953.0195    137.41612 
135104000     326.9908    245.07594    -5929.024    5984.7088    81.914859 
135108000    581.20269    354.29813   -5985.6082    6003.7852    226.90455 
135112000    421.20813    380.44975   -6013.5741    6018.4902    40.758384 
135116000    180.63228    191.54753     -6028.99    6068.8394   -10.915258 
135120000     473.5466    377.61189   -6090.0299    6107.3431    95.934713 
135124000    470.05502    327.95949   -6131.3659    6163.5702    142.09552 
135128000    379.69638    187.64406   -6143.2409    6168.5973    192.05232 
135132000    279.26624    282.92891    -6184.898    6201.4351   -3.6626706 
135136000    200.95401    365.21081   -6217.9651    6249.1835    -164.2568 
135140000    392.81781    340.98496    -6255.474    6277.7825    51.832843 
135144000     247.9583    321.68826   -6256.1537    6303.4247   -73.729958 
135148000    265.19809    190.04122   -6323.3049    6340.8348    75.156871 
135152000     462.3045    297.74793   -6383.5048    6395.0262    164.55657 
135156000    341.61229    316.81039    -6432.774    6455.1406    24.801903 
135160000    339.03102    504.81733   -6481.0818    6497.8971   -165.78631 
135164000    325.34613    231.71831   -6529.1925    6544.6434    93.627815 
135168000    328.81621     304.5735   -6559.5907    6598.1701     24.24271 
135172000    256.40686    337.58912   -6605.1091    6648.1055   -81.182259 
135176000    302.82467     228.5729   -6637.0734    6674.8223    74.251769 
135180000    348.88369     380.3804   -6677.2546    6697.4299   -31.496703 
135184000    389.78164    361.06117   -6695.6285    6728.3548    28.720473 
135188000    470.32852    264.15491   -6763.0498    6806.9469    206.17361 
135192000    369.10634    333.63848   -6815.7396    6861.7714    35.467855 
135196000    467.40075    177.46156   -6856.2646     6912.598    289.93918 
135200000    334.11897    316.23802   -6906.0211    6927.2853    17.880946 
135204000    350.41163    270.54464   -6911.1018    6952.1589    79.866994 
135208000    336.25639    405.95207   -6914.2925    6945.7435   -69.695677 
135212000    407.65957    321.61185   -6980.7035    6984.4505     86.04772 
135216000    270.65072    235.08051   -7008.1619     7034.839    35.570212 
135220000    322.96679    339.92997   -7021.2759    7063.1792   -16.963178 
135224000    264.90991    255.30122   -7056.8805    7103.1225    9.6086893 
135228000    318.08897    296.39667   -7124.7614    7127.9264    21.692298 
135232000    423.77931    381.02996   -7157.3453    7183.6511    42.749353 
135236000    356.00432    345.65071   -7212.6069    7226.3623    10.353602 
135240000    461.01835    240.82571    -7221.289    7258.1967    220.19264 
135244000    361.18302    360.06454    -7231.401    7282.3664    1.1184858 
135248000    250.29817    481.47307   -7256.2955    7276.9827   -231.17491 
135252000    443.68418    411.18585    -7290.025    7330.0597    32.498334 
135256000    308.75603    469.17372   -7335.0615    7361.7589   -160.41769 
135260000    363.55784     532.9892   -7406.3078    7444.4507   -169.43136 
135264000    433.18043    489.09443   -7461.9489    7487.3099   -55.913999 
135268000    403.44844    301.81203   -7496.2742    7550.1513     101.6364 
135272000     368.0491    693.64112   -7534.4627    7590.9736   -325.59203 
135276000    434.09652    262.23177   -7591.2393      7616.72    171.86475 
135280000    350.95046    380.90556    -7612.626    7646.6548   -29.955099 
135284000    336.52458    444.09349   -7692.0423    7704.6765   -107.56891 
135288000    358.34609     304.4989   -7731.9098    7759.5703    53.847189 
135292000    380.29369    347.45753   -7783.6927    7819.6297    32.836165 
135296000    329.22671    274.91632   -7865.8713    7907.9395    54.310389 
135300000     422.8226    418.19514   -7942.9244    7963.7524    4.6274583 
135304000    413.81845    246.25986   -7981.2791    8005.0252    167.55859 
135308000    518.75892    515.80634   -8000.8295    8020.5538    2.9525812 
135312000    450.77896    296.59019   -8043.2885    8049.9609    154.18878 
135316000    176.74092    499.23075   -8085.7675    8084.7069   -322.48983 
135320000     270.9023    251.60296   -8131.6407    8187.0496    19.299331 
135324000    607.30521    243.21949   -8164.6699    8197.1765    364.08572 
135328000     347.4564    302.42824   -8210.5698    8239.0289    45.028155 
135332000    326.00228    250.77537   -8213.9913    8246.0116    75.226911 
135336000    332.38967    349.90215   -8263.7701    8279.8492   -17.512481 
135340000    283.45822    361.77628   -8325.7491    8344.4454   -78.318068 
135344000    397.39441    375.01596   -8380.4433    8407.0865    22.378449 
135348000    473.61328    366.31463   -8424.2628    8432.1541    107.29864 
135352000    360.38584    321.17293   -8474.8032     8490.677     39.21291 
135356000    249.14366     289.9399   -8511.0007    8546.8829   -40.796239 
135360000    480.00827    360.07122   -8570.4517    8616.4383    119.93704 
135364000    317.36183    278.23396   -8650.1803    8681.2202    39.127873 
135368000      356.404    376.11081   -8673.2694    8714.1758   -19.706808 
135372000    357.30571    374.82564   -8679.0476    8716.2907   -17.519928 
135376000    586.80941    314.33285   -8731.2104    8745.4571    272.47656 
135380000    548.64241    198.68316   -8755.6418    8771.4958    349.95925 
135384000    420.89748    221.61496   -8794.3956    8814.3005    199.28253 
135388000    442.02472    383.11639   -8844.3089    8868.7574    58.908329 
135392000    301.96778    304.88931   -8837.6212    8905.8732   -2.9215326 
135396000    370.18304    383.98989   -8934.3778    8958.4205   -13.806849 
135400000    276.64539     379.0459   -8992.0446     9013.417    -102.4005 
135404000    533.67485    301.70482   -9018.9715    9040.8551    231.97003 
135408000      335.014    276.59108   -9053.3927    9075.4571    58.422922 
135412000    373.33844    235.67866   -9090.7388    9096.5051    137.65978 
135416000    258.49245    454.97045   -9120.5635    9144.1234     -196.478 
135420000    289.87691    249.18697   -9135.8632    9172.7619    40.689943 
135424000    354.27852    218.84675   -9185.1005    9226.2768    135.43178 
135428000    312.17229    358.18282   -9236.5566    9290.1929   -46.010525 
135432000    456.88543    209.36485   -9284.4357    9313.5738    247.52058 
135436000    339.91086    318.82162   -9315.3769     9339.791    21.089241 
135440000    370.17498    258.74656    -9387.267    9371.8796    111.42842 
135444000    401.03921    284.84333   -9431.1931    9467.0293    116.19588 
135448000    329.49902    272.51552   -9478.7693    9511.1726    56.983499 
135452000    244.24534    394.51383   -9491.8958    9514.6685   -150.26849 
135456000    238.88153    296.14038    -9502.786     9521.572   -57.258851 
135460000    394.64817    341.63865   -9516.1313    9541.1182    53.009518 
135464000    427.85133    231.73736   -9565.8991    9581.4196    196.11398 
135468000    437.70908    152.55347    -9568.712    9601.5258    285.15561 
135472000    310.37268    297.42479   -9576.5102    9642.2942    12.947883 
135476000    351.40768    335.43341   -9613.3626    9637.8448    15.974271 
135480000    379.81998    310.41593   -9637.2923    9675.7913    69.404052 
135484000    310.34902    332.00883   -9691.2721    9716.3438   -21.659816 
135488000    234.99906    255.28549   -9716.4653    9758.5167   -20.286432 
135492000    464.88904    259.13494   -9778.7387    9802.7075     205.7541 
135496000    192.34349    206.97661   -9809.0408    9824.4781   -14.633118 
135500000    376.01012    326.82091   -9877.0255    9903.6696    49.189203 
135504000    388.31149    270.74872   -9928.0482    9964.9236    117.56277 
135508000    237.17222    213.30464   -9978.2773    10028.822    23.867575 
135512000    278.02559    282.06095   -10000.755    10034.601   -4.0353638 
135516000    293.84924    137.52096   -10004.071    10061.155    156.32828 
135520000    361.39086    331.35419   -10049.978    10088.914    30.036672 
135524000    352.90978    335.82637   -10049.791    10093.248    17.083407 
135528000    372.50989    144.81439   -10112.062    10124.091     227.6955 
135532000    328.84423    443.10394   -10140.007    10169.275   -114.25971 
135536000    349.20622    294.84521   -10173.462     10210.97     54.36101 
135540000    336.66279    490.21091   -10224.583    10250.275   -153.54813 
135544000    295.19071    483.78372   -10244.687    10300.539   -188.59301 
135548000    305.82271    436.28492   -10315.761    10336.456   -130.46221 
135552000    340.92953    348.57981   -10317.432    10360.359   -7.6502767 
135556000    451.46975    376.15722    -10375.19     10387.84    75.312533 
135560000    278.06822    316.89493   -10413.348    10440.501   -38.826711 
135564000    275.75446    236.84987   -10454.677    10461.936    38.904594 
135568000    298.54819    320.25837   -10470.616    10500.359   -21.710182 
135572000    324.73793     360.9407   -10513.551    10555.165   -36.202766 
135576000    391.60661    426.92393   -10578.002    10603.705   -35.317312 
135580000    267.32066    443.55809   -10647.616    10662.078   -176.23743 
135584000    380.66676    495.88151   -10683.895     10702.12   -115.21474 
135588000    266.74193    295.12706   -10723.464    10735.726   -28.385126 
135592000    439.62132    255.54655   -10749.762    10789.395    184.07477 
135596000    313.93593    145.53871   -10779.661    10799.842    168.39722 
135600000    237.52369    467.84541   -10818.858    10839.196   -230.32172 
135604000    321.38406    352.27779   -10858.113    10877.663    -30.89373 
135608000    282.61501    304.69341   -10923.192    10937.796   -22.078398 
135612000    440.80875    208.29312   -10955.987    10973.993    232.51562 
135616000    229.56139    284.40486   -10986.308    11012.264    -54.84347 
135620000     347.6758    245.81009   -11019.572    11082.349    101.86571 
135624000    308.20754     407.2496   -11060.961    11090.145   -99.042053 
135628000     301.2879    341.31186   -11062.068    11100.013   -40.023967 
135632000    326.92243    319.62056   -11078.208    11130.507    7.3018723 
135636000    305.86581     503.8764   -11172.184    11176.655   -198.01059 
135640000    473.70393    298.95548   -11179.933     11214.65    174.74845 
135644000    346.08699     249.1241   -11225.791    11265.843    96.962892 
135648000    410.91099    334.34267   -11248.794    11283.797    76.568322 
135652000    463.82342    361.33307   -11303.712    11344.683    102.49035 
135656000    311.98286    291.67172   -11371.693    11411.716     20.31114 
135660000     209.6121    249.65283   -11405.642    11448.395   -40.040739 
135664000    274.39053    333.05892   -11446.952    11484.331   -58.668387 
135668000    199.84929    248.92412   -11454.026    11512.261   -49.074828 
135672000    183.80337    438.74513   -11514.305     11555.57   -254.94176 
135676000    282.79703    423.70584    -11572.65    11617.512   -140.90882 
135680000    377.46681    219.45612   -11618.982    11653.272    158.01069 
135684000    435.67497    424.70868   -11666.626     11708.65    10.966295 
135688000    570.12011    238.12373   -11735.751    11743.628    331.99639 
135692000    357.48029    293.38261   -11749.448    11778.821    64.097686 
135696000    365.71699    140.62194   -11789.628    11828.472    225.09505 
135700000    362.67393    430.20292   -11855.715    11891.748   -67.528997 
135704000    247.60925    397.52683   -11909.011    11941.664   -149.91758 
135708000    237.13511    427.95176   -11932.632    11983.492   -190.81666 
135712000    399.28985    411.80145   -11983.443    12004.157   -12.511597 
135716000    468.38437    265.19956   -12073.224    12073.976    203.18482 
135720000    217.47405    468.84634   -12120.777    12136.479   -251.37229 
135724000    522.23493    264.96246   -12138.219    12172.304    257.27247 
135728000    511.63757    249.45018   -12231.624    12236.621    262.18739 
135732000    542.73842    370.09431   -12289.861    12316.892    172.64411 
135736000    439.96857    416.15434    -12330.64    12372.403    23.814225 
135740000    331.02649    318.67592   -12349.987    12393.465    12.350567 
135744000    513.51292    339.27985   -12370.851    12392.604    174.23307 
135748000    314.50054    367.80436   -12417.327    12457.536    -53.30382 
135752000    260.81869    217.38094   -12475.025    12530.858    43.437757 
135756000    324.44651    369.14572    -12551.49     12567.19   -44.699215 
135760000    333.94269    266.37205   -12609.978    12632.211    67.570647 
135764000    229.35119     325.2839   -12650.846     12701.52    -95.93271 
135768000    340.65432    301.80609   -12656.095    12712.281    38.848224 
135772000     215.0442    156.43752   -12694.712    12737.478    58.606676 
135776000    229.06145    374.79545   -12742.511    12790.444     -145.734 
135780000    341.43051    241.70847   -12774.083    12816.328    99.722037 
135784000    312.48182    351.35217   -12832.493    12877.649   -38.870349 
135788000    241.05878    403.41315   -12882.878    12884.566   -162.35437 
135792000    290.98214    325.86502   -12899.375    12923.675   -34.882882 
135796000    402.48859    445.01876   -12957.978    13004.942   -42.530171 
135800000    249.64858     228.2414   -13012.151    13050.925    21.407181 
135804000    226.33107    246.29954   -13080.882    13120.796   -19.968479 
135808000    213.23091    386.89467   -13126.055    13187.249   -173.66376 
135812000    197.14305    279.18306   -13178.758     13210.55   -82.040013 
135816000    401.35858    303.06972   -13172.583    13210.642    98.288865 
135820000    346.88906    263.25149    -13197.14    13212.679    83.637566 
135824000     316.9579    280.97884   -13206.169    13281.591     35.97906 
135828000    413.28876    454.15017   -13241.239    13279.513   -40.861413 
135832000    229.47784    262.11471    -13275.62    13314.132   -32.636869 
135836000    338.12734    228.94813    -13312.12    13340.313    109.17921 
135840000    255.09936    418.17167   -13359.135    13405.173   -163.07231 
135844000    246.25962    154.24204   -13433.528    13465.735    92.017583 
135848000    270.19617    335.37314   -13444.946    13458.377   -65.176977 
135852000    355.44957    351.06134   -13463.634    13477.948    4.3882357 
135856000    365.08352    257.09219   -13505.491     13520.45    107.99133 
135860000    361.57815    258.44115   -13516.087     13545.31      103.137 
135864000    265.98491    324.29444   -13531.583    13565.687   -58.309524 
135868000    292.82377    321.96972   -13601.396    13623.868   -29.145953 
135872000     299.9055    214.17898   -13669.416     13693.45    85.726523 
135876000    455.66218      212.359   -13726.013    13750.246    243.30319 
135880000    294.71578    243.66573   -13792.419    13828.978    51.050055 
135884000    408.77395     538.6446   -13830.172    13849.408   -129.87065 
135888000    433.13709    319.21837   -13848.076    13866.914    113.91872 
135892000    351.25566    299.06041   -13912.149    13937.158    52.195252 
135896000    424.15398    472.67848   -13935.705    13949.813     -48.5245 
135900000    534.80032    243.32647   -13977.934    14005.314    291.47385 
135904000    286.18273    328.71915   -14042.249    14058.353   -42.536414 
135908000     360.0909    450.47905   -14061.807    14074.953   -90.388151 
135912000    190.91239    366.73467   -14100.226    14122.785   -175.82227 
135916000    258.16231    324.95066   -14100.573    14134.001    -66.78835 
135920000    184.14112    240.15461   -14136.819     14180.96   -56.013491 
135924000    412.28919    321.97769   -14153.061    14180.996    90.311496 
135928000    295.89523    169.66648   -14184.082    14219.735    126.22875 
135932000    366.34402    394.12853   -14247.331    14279.143   -27.784504 
135936000    404.96622    382.61551   -14259.365    14302.482    22.350711 
135940000    531.41308    301.53083    -14289.47    14310.045    229.88225 
135944000    281.66344    361.08693   -14316.738    14343.384   -79.423489 
135948000    277.30791    216.66582   -14338.869    14388.502     60.64209 
135952000     276.5382    202.39514    -14370.58    14399.691     74.14306 
135956000    389.73274    443.63465   -14415.162    14445.069   -53.901912 
135960000    574.72065    384.40511   -14487.696    14498.005    190.31554 
135964000    456.30538    304.82551   -14507.512    14538.436    151.47987 
135968000    267.98391    203.69698   -14535.007    14572.197    64.286935 
135972000    482.52685    457.78569   -14570.976    14604.517    24.741156 
135976000     183.5283      546.794   -14566.886    14606.999    -363.2657 
135980000    512.50938    311.24017   -14618.502    14633.813    201.26921 
135984000    341.16131    313.15416   -14684.421    14697.218     28.00715 
135988000    229.47197    265.67815   -14702.919    14735.221    -36.20618 
135992000    327.88105    414.19402   -14776.393    14810.745   -86.312966 
135996000    280.64907    377.36853    -14794.78    14812.474   -96.719458 
136000000    313.24303    335.31757   -14821.464    14838.706   -22.074538 
136004000    384.99317      313.095   -14861.616    14904.248     71.89817 
136008000    386.19672    252.28625   -14876.008    14908.723    133.91047 
136012000    352.55714    316.33806   -14959.177    14983.263    36.219083 
136016000    350.01788    248.09845   -15022.046    15040.291    101.91943 
136020000    261.29993    341.47084   -15049.292     15068.02   -80.170911 
136024000    589.99957    380.65212   -15088.343    15112.024    209.34745 
136028000    432.35726    226.42155   -15094.756    15118.981     205.9357 
136032000    277.98831    301.18751   -15118.469    15164.984   -23.199195 
136036000        387.9    345.50114   -15167.071    15195.365    42.398862 
136040000     260.8111    403.60029   -15187.103    15231.448   -142.78919 
136044000    343.00457    283.82041   -15214.214    15251.701    59.184159 
136048000     499.5229    386.79775   -15251.224     15285.38    112.72516 
136052000    493.02741    201.74511   -15309.004    15342.382     291.2823 
136056000    451.44662    334.83775   -15366.733    15395.075    116.60886 
136060000    371.51988    247.70124   -15414.944    15446.917    123.81864 
Loop time of 110.209 on 4 procs for 1600000 steps with 196 atoms

Performance: 1567.929 ns/day, 0.015 hours/ns, 14517.859 timesteps/s
100.0% CPU use with 4 MPI tasks x no OpenMP threads

MPI task timing breakdown:
Section |  min time  |  avg time  |  max time  |%varavg| %total
---------------------------------------------------------------
Pair    | 22.918     | 24.446     | 25.801     |  25.4 | 22.18
Bond    | 35.022     | 41.415     | 48.077     |  86.9 | 37.58
Neigh   | 0.25265    | 0.25625    | 0.25971    |   0.5 |  0.23
Comm    | 12.695     | 20.515     | 27.509     | 120.9 | 18.61
Output  | 0.0054698  | 0.0061245  | 0.0074055  |   1.0 |  0.01
Modify  | 19.905     | 20.436     | 20.778     |   7.3 | 18.54
Other   |            | 3.135      |            |       |  2.84

Nlocal:    49 ave 53 max 46 min
Histogram: 2 0 0 0 0 0 0 1 0 1
Nghost:    147 ave 150 max 143 min
Histogram: 1 0 1 0 0 0 0 0 0 2
Neighs:    978.25 ave 1048 max 898 min
Histogram: 1 0 0 0 1 0 1 0 0 1

Total # of neighbors = 3913
Ave neighs/atom = 19.9643
Ave special neighs/atom = 5.87755
Neighbor list builds = 3095
Dangerous builds = 0
unfix 1


# PRODUCTION

fix             1 all nve
fix             hot all langevin ${TThi} ${TThi}  50.0 52804  tally yes
fix             hot all langevin 320 ${TThi}  50.0 52804  tally yes
fix             hot all langevin 320 320  50.0 52804  tally yes
fix             cold all langevin ${TTlo} ${TTlo} 50.0 297859 tally yes
fix             cold all langevin 280 ${TTlo} 50.0 297859 tally yes
fix             cold all langevin 280 280 50.0 297859 tally yes
fix_modify      hot temp Thot
fix_modify      cold temp Tcold


variable        tdiff equal c_Thot-c_Tcold
thermo          4000

dump gigo all atom 40000 dump.cords_xyz.dat
dump_modify gigo scale no
dump vfgigo all custom 800 dump.velo.dat id vx vy vz fx fy fz

# thermal conductivity calculation
# # reset langevin thermostats to zero energy accumulation
#
compute         ke all ke/atom
variable        temp atom c_ke/1.5/0.0019872

fix             ave all ave/time 100 40 4000 v_tdiff ave running
thermo_style    custom step temp c_Thot c_Tcold f_hot f_cold v_tdiff f_ave

#compute         layers all chunk/atom bin/1d z lower 0.05 units reduced
compute         layers all chunk/atom bin/1d z lower ${dz} units box
compute         layers all chunk/atom bin/1d z lower 4.1310649555631 units box
fix             2 all ave/chunk  100 40 4000 layers v_temp file profile.langevin

#dump mydump2 all xyz 40000 prod-coord.xyz
#dump_modify mydump2 element C S S

run             32000000
Per MPI rank memory allocation (min/avg/max) = 11.52 | 11.52 | 11.52 Mbytes
Step Temp c_Thot c_Tcold f_hot f_cold v_tdiff f_ave 
136060000    289.47621    371.51988    247.70124           -0           -0    123.81864            0 
136064000    283.53547    395.93328    212.33722   -37.082716    41.552352    183.59606   -11.765167 
136068000    259.05481    302.91993    365.26356   -68.663453    68.448595   -62.343627    13.026924 
136072000    279.79885    447.74552    474.75446   -110.31343    124.73885   -27.008937    11.970486 
136076000    259.16333     339.3239    318.16979   -139.90499    151.09609    21.154109     4.717708 
136080000    284.10532    798.08923    154.26939   -182.80161    189.12197    643.81983    12.649814 
136084000    270.30733    339.76969    425.40964   -179.15534    191.07239    -85.63995    14.049225 
136088000    282.48177    274.83042    277.69421   -208.17607    217.42135   -2.8637808    16.766774 
136092000    283.11187     538.8907    231.38391   -271.88707    278.95939     307.5068    18.270192 
136096000    263.55081    360.69683     233.1325   -320.58486    323.34293    127.56434    21.145883 
136100000    254.59422     355.5491    283.27494   -390.32419    417.45232    72.274154    20.053626 
136104000    288.80347    434.85898    262.60493   -412.99595    415.00263    172.25405    20.290579 
136108000    308.75532    326.37077    271.68977   -464.77441    446.59383    54.681002    19.417366 
136112000    278.87293    341.17281    288.28692   -500.03911    495.22738     52.88589    20.977989 
136116000    290.06676    377.97062     297.1538   -522.37143    513.56584    80.816821    22.183535 
136120000    307.54912    314.46172    276.66214    -559.8056    547.30811    37.799582    22.034986 
136124000    286.71374    218.08223     259.5057   -607.16703    591.78416   -41.423475    21.092976 
136128000    291.57181    349.98753     268.8268   -626.73768    627.01201    81.160737    20.830815 
136132000    288.86503    279.30041    479.31106   -647.62779    652.49268   -200.01065      19.9125 
136136000    282.25052    299.00914    237.21752   -686.76536    674.88986    61.791624    20.297138 
136140000    296.11573    389.45623    396.16258   -710.16109    702.02917   -6.7063448    19.859131 
136144000    272.14718    285.24192    177.54846   -772.27815    774.07156    107.69346    19.770087 
136148000     285.3403    319.83415    197.99532   -824.84124    839.06729    121.83883    19.905196 
136152000    283.32999    306.90329    287.87769   -881.33169    872.70787    19.025606    20.391528 
136156000     315.6917    412.96116     380.8032   -907.92304    882.36142    32.157956    19.774319 
136160000    303.97023    505.63095     349.9412   -930.63329    901.00568    155.68975    20.102375 
136164000     263.9512    256.42561    195.79818    -971.0191    985.33142    60.627428    18.913328 
136168000    242.21277    277.32677    164.53695   -1008.5373    1020.9249    112.78982    19.518903 
136172000    299.40458    285.49453    267.06163   -1033.0172    1021.3739    18.432899    19.227117 
136176000    275.25393     246.2353    398.04137    -1081.367    1093.5685   -151.80608    19.922239 
136180000     296.7874    314.88818     465.2187   -1124.3962    1131.7029   -150.33052    17.948999 
136184000    296.88263    296.32416    314.37592   -1140.0405    1148.3728   -18.051759    18.234752 
136188000    312.53098    273.87347    300.56928   -1187.0643    1162.8551   -26.695806    17.768928 
136192000    283.77977    318.70044    254.71093   -1216.5876    1236.1114    63.989516    17.614217 
136196000    305.00247     602.1926    199.99265   -1268.1494    1242.1468    402.19995    18.015882 
136200000    289.08437    297.52283    361.78599   -1295.3452    1303.4598   -64.263158    17.555033 
136204000    314.36209    423.65782    269.27293     -1361.12    1334.2978    154.38489    17.550693 
136208000    288.31878    291.15168     314.6972   -1360.6761    1373.0134   -23.545522    16.610955 
136212000    280.58199    373.42216    243.14009   -1412.7866    1406.1289    130.28207    17.498434 
136216000    287.81021    451.48026    214.30891   -1445.6017    1450.4098    237.17135    17.233479 
136220000    262.26869    265.71252    300.53622   -1482.1437    1510.3383     -34.8237    17.613744 
136224000    300.11457    287.33964    307.42053   -1542.9093    1550.1192   -20.080888    18.454192 
136228000    292.31122    456.25352    458.96352   -1612.5643    1602.1595    -2.710001    18.891002 
136232000    291.91017     371.1129    429.10689   -1651.2095    1639.5547   -57.993989    19.213924 
136236000    258.48461    311.14772     336.6102   -1681.1147    1710.3334   -25.462479    19.005804 
136240000    277.44112    438.07855    223.29316   -1739.0855    1733.0105    214.78539    18.904221 
136244000    252.16077    154.82971    275.06807   -1757.3614    1779.6499   -120.23836    18.199586 
136248000    283.11178     357.4833     220.8201   -1807.1675    1819.9094     136.6632    18.223325 
136252000    275.54577    314.17489    249.33929   -1839.8992    1865.4923    64.835599    18.231752 
136256000    313.32972    429.11081    240.18096   -1912.8104    1891.2237    188.92986    18.858191 
136260000    267.29312    513.66788    263.92605   -1959.7022    1959.0568    249.74183    18.697172 
136264000     256.0601       417.08    484.09896    -1989.819    2003.5421    -67.01896    19.222646 
136268000    277.38001    253.67033    368.05211   -2038.6386    2041.0877   -114.38178    19.308317 
136272000    292.06948    368.87124    281.39298   -2052.3813    2048.0403     87.47826    18.915734 
136276000    261.97176    237.81431    322.99209   -2067.5332     2094.303   -85.177776     18.61106 
136280000    284.41783    287.23178    334.85604   -2103.9954    2099.0335   -47.624257    19.130796 
136284000       254.54    280.74332     151.4314   -2114.0863    2124.8687    129.31193    19.516155 
136288000    278.93997    295.98586    351.23199    -2178.116    2171.6058    -55.24613    19.611312 
136292000     288.7594    272.01723    283.56693   -2206.0532    2208.9077   -11.549705    19.943431 
136296000    319.29582     233.0171    340.59701   -2251.6798    2243.2454   -107.57991    20.314518 
136300000    286.44301    400.90249    302.27336    -2278.734    2275.0147    98.629124    20.547389 
136304000    332.47834    276.08237    249.94115   -2318.4312    2287.0952    26.141212    20.510403 
136308000    276.34681    353.17704    287.31272   -2320.3563    2300.8815    65.864316    20.620571 
136312000    308.89948    405.99794     254.9384    -2352.546    2329.6158    151.05954    20.521784 
136316000    246.09881    282.27543    289.33385   -2353.6888    2366.2067   -7.0584248    20.383411 
136320000    311.76906    484.37407    242.17058   -2408.0863    2391.8421    242.20349    20.667727 
136324000    291.28485    383.51572    376.08781   -2449.5048    2437.6778    7.4279115    20.378905 
136328000    263.41004    216.12763    368.38737   -2485.1895    2495.8755   -152.25974    20.449982 
136332000    258.69869    264.22337    308.16514   -2500.7361    2529.3553   -43.941776    20.450972 
136336000    275.70823     321.5447    254.80452   -2541.9627    2558.1991     66.74018    20.662178 
136340000    321.92749    385.63033    326.44832   -2599.5148    2572.5682    59.182013     21.25708 
136344000    282.62895    258.34685    368.54196   -2623.5078    2636.5601   -110.19512    21.178024 
136348000    312.51446    330.20461     325.5388   -2698.0271     2682.289    4.6658075    21.337059 
136352000    259.70956    274.18121    321.56367   -2710.1112    2743.1571    -47.38246    21.711099 
136356000    310.10599    202.25379    379.62488    -2757.171    2752.5099   -177.37109    21.258603 
136360000    301.52775    290.12838    357.54196   -2785.1529    2766.7611   -67.413583    20.901221 
136364000    283.08053    307.13673     200.7801   -2830.5728    2831.4641    106.35663     20.62105 
136368000    254.23517     193.2019    469.01931   -2872.5428    2875.9608   -275.81741    20.328969 
136372000    272.50159    197.34902    220.33449   -2918.2059     2931.241   -22.985475    20.716204 
136376000    246.53214    311.89466    393.91795   -2925.8398    2956.0683   -82.023288    20.699712 
136380000    259.97218    252.87954    215.73426   -2977.2979    2988.3129    37.145285    20.966827 
136384000    276.11434    266.46124    462.12458    -3038.333    3049.4539   -195.66334    20.644108 
136388000    306.25016    388.42909    361.60101   -3102.8062    3088.9867    26.828076    20.445687 
136392000    267.18992    260.66539    316.74081   -3081.9429    3102.5543   -56.075419     20.42134 
136396000    253.37542    250.61898     548.7593   -3127.8297    3144.3418   -298.14033    20.257973 
136400000    261.93668     366.4554    381.39843   -3164.9207    3184.8782   -14.943028    20.508765 
136404000    295.56587    315.32756    161.01564   -3263.8941    3249.6689    154.31193    21.091353 
136408000    312.35882    375.84009    324.44907   -3284.8959    3253.1411    51.391027    21.108287 
136412000    289.71022     233.4181    162.11042   -3334.0849    3330.0964    71.307681    20.774217 
136416000    293.71597    167.10907    349.18784   -3378.9259     3371.746   -182.07877    20.633881 
136420000    278.34067    232.52873    421.78844   -3416.7954    3423.2193   -189.25971    20.531154 
136424000    278.17087    317.24591    240.81135    -3490.225    3489.5486    76.434558    20.583198 
136428000    252.44838    448.44446    229.24772   -3510.6452    3543.6921    219.19674    20.828713 
136432000    270.55219    310.48081    252.32786   -3569.7117    3593.7745    58.152946    20.966398 
136436000    292.36261    457.45841    388.97761   -3614.0969    3620.7849    68.480806    21.274005 
136440000     279.5059    279.64701    342.39303   -3679.4074    3692.0589   -62.746016    21.048132 
136444000    271.15598    348.52146    239.00501   -3712.3154    3743.9591    109.51645    21.306725 
136448000    266.05854    377.51073    237.12786   -3720.0412    3745.4844    140.38287     21.29286 
136452000    302.03436    262.59112    294.94357   -3774.8971    3779.8144   -32.352451    21.413422 
136456000    287.93307    318.86959    358.79262   -3805.0222    3802.5715    -39.92303    21.240508 
136460000    274.51256    258.47161    365.88898   -3813.6318    3830.9498   -107.41737    21.535684 
136464000    269.72295    247.38077    466.15672   -3874.1912    3894.1713   -218.77595    21.550868 
136468000     248.1676    231.85012     352.9035   -3843.5787    3878.4305   -121.05338     21.43304 
136472000    253.93953    386.83054    270.30121   -3889.5936    3920.7105    116.52933    21.323445 
136476000    268.90617    289.90949    251.89607   -3967.9692    3977.8474    38.013417    21.525491 
136480000    294.67815    300.59652    326.56864   -4010.1736    3989.8236   -25.972118    21.481656 
136484000    328.45952    338.63807    320.98726   -4037.6806    4001.5588    17.650809    21.600328 
136488000    274.98405    269.46202    424.81237   -4055.0027    4048.5899   -155.35035    21.353159 
136492000     296.1842    310.07934    373.11955   -4105.7931    4101.3127   -63.040214    21.315052 
136496000    264.26042    277.49163    317.13697   -4137.0687    4144.6691   -39.645341     21.37339 
136500000    307.50871     176.0686    503.90924   -4156.2604    4144.9429   -327.84064    21.400789 
136504000    264.90818    179.12775    380.42641   -4194.2304    4199.0984   -201.29866    21.606416 
136508000     308.0888     309.8352    365.00469    -4254.902    4225.2027   -55.169496     21.87471 
136512000    309.21635    340.97219    406.03097   -4309.1555    4277.5219   -65.058776     21.74745 
136516000    272.13311        249.2    559.55529   -4309.0867    4327.8786   -310.35529    21.885598 
136520000    297.40647    363.16752    303.00886   -4396.8767     4386.143    60.158658    21.577589 
136524000    290.80064    452.32572    280.27873   -4422.7032    4422.6089    172.04699    21.686389 
136528000    278.28972    412.15307    413.57573   -4445.6157    4444.4655   -1.4226591    21.780293 
136532000    295.36297    443.36439    285.74658   -4483.6289    4495.4586    157.61781    22.091103 
136536000    286.16594     357.5061    309.44121   -4535.8808    4539.7488    48.064887    21.881356 
136540000    292.17218    306.81831    406.80214   -4596.1053    4592.8475   -99.983831    21.717712 
136544000    287.36684    233.66153     569.6915   -4580.7901     4590.271   -336.02997    21.735863 
136548000    270.05149    262.58391    315.14862   -4623.9019    4635.8214   -52.564709    21.851558 
136552000    256.39522    477.76889     191.5975   -4690.0151    4713.0865    286.17139    21.873523 
136556000     272.3518    376.58656    385.21208   -4702.2308    4730.2885   -8.6255173    21.845658 
136560000    272.71271    301.01127    121.72408   -4716.6473    4721.6334    179.28719    22.133462 
136564000    268.19305    226.21091    329.57188    -4706.997    4722.2486   -103.36097    22.143055 
136568000    267.34976     322.2667    314.42517   -4748.9326    4758.5117    7.8415289    22.088624 
136572000    267.70392    202.99253    216.66234    -4774.931    4808.3323    -13.66981    21.951412 
136576000    273.37962    325.91181    179.51788   -4819.8606    4837.8814    146.39394    22.183342 
136580000    264.17645    396.52617    231.82462   -4879.7309      4892.87    164.70155    22.482459 
136584000    273.41928    446.93053     371.4942   -4923.7334    4935.0287    75.436332    22.485718 
136588000    288.84645    410.78412    289.62731   -4987.0058    4981.1354    121.15681     22.53003 
136592000    284.16472    552.51703    268.84288   -5016.4353    5019.2454    283.67415    22.584723 
136596000    297.23795    294.46119    324.76981   -5055.7896    5045.0564   -30.308616    22.498034 
136600000    293.35741    234.72783    408.13464   -5126.3694    5113.7334   -173.40681    22.426312 
136604000    285.66817    300.93884    357.35338   -5125.4052    5124.0359   -56.414545    22.293011 
136608000     278.9291    277.95682    250.53851   -5183.8734    5185.9585    27.418311    22.382786 
136612000    285.85103    379.74021    261.04891   -5231.2797    5237.8299     118.6913    22.419334 
136616000    303.20069    349.55477    245.96636   -5270.3237    5256.5128    103.58841    22.393728 
136620000    247.98207    251.75537    278.68971   -5275.9316    5286.9485   -26.934342    22.574747 
136624000      287.605    395.65911    260.08889   -5329.7342    5338.2826    135.57022    22.817727 
136628000     286.8273    266.74647    275.82141   -5394.9603    5385.8772   -9.0749371    23.074819 
136632000    306.50325    571.37283    271.70212   -5425.0955    5420.1282    299.67071    23.307852 
136636000    304.13131    317.77938    271.84293   -5453.4046    5437.5085    45.936453    23.513451 
136640000    291.62446    443.02678    255.66202   -5473.9956     5473.216    187.36477    23.572374 
136644000    284.01963    361.51246    339.25304   -5510.4102    5493.0536    22.259414    23.518114 
136648000    247.25874    272.80684    406.18133   -5516.2754    5537.5641   -133.37448    23.363275 
136652000    276.70151    272.65578    305.01484   -5567.5263    5572.7742   -32.359065     23.43662 
136656000    280.71531    452.46938    271.79232   -5597.5796    5607.7582    180.67706    23.329561 
136660000    254.51454    314.37528    211.72157   -5648.1178    5640.4119    102.65371    23.057001 
136664000    295.73363    288.94419    567.58055   -5670.3259    5661.8753   -278.63636    22.669964 
136668000    319.30684    333.28982    437.52517   -5721.6084    5694.1826   -104.23536    22.471204 
136672000    280.45578     260.4619    224.79893   -5749.5713    5759.5932    35.662974    22.307924 
136676000    263.67443    238.96898    296.51391   -5743.4336    5763.6255   -57.544928    22.337278 
136680000    277.21696    394.29118    400.90864   -5791.6184     5780.923   -6.6174518    22.327944 
136684000    272.57643    353.84267    273.26256   -5815.8258    5824.0437    80.580106    22.402007 
136688000    273.28223    353.15727    353.03753    -5855.281    5868.2047    0.1197369    22.325844 
136692000    284.71544     250.8846    325.03033   -5907.0503    5901.1434   -74.145725     22.31943 
136696000    307.31992    485.20679    293.10374   -5959.5488    5953.3797    192.10304    22.342799 
136700000    271.86182    307.35855    373.64418   -5982.6134    5989.7049   -66.285631    22.733598 
136704000    295.50575    367.47867    415.39229   -6051.8855    6041.0932   -47.913613    22.862704 
136708000    288.67271    342.70522     387.4597   -6074.6681    6086.5616   -44.754477    22.911319 
136712000    289.19284    214.42092    279.34106   -6150.2341     6163.653   -64.920139    22.914838 
136716000    300.94074    234.98662    647.61975   -6238.1862    6224.1998   -412.63313    22.951172 
136720000    310.65694    287.52765    394.40933   -6283.8993    6270.7721   -106.88168     22.99598 
136724000    277.37311    464.80548    247.81187    -6326.546    6325.7798    216.99361    22.962535 
136728000    286.90424    390.92751    447.99523   -6395.7034    6374.0209   -57.067712    22.945893 
136732000    297.90464    368.13278    366.05825   -6406.6355     6398.821    2.0745296    22.892968 
136736000    295.59144    174.84909     262.5051   -6444.0392    6446.9398   -87.656003    22.839559 
136740000    278.26026    350.28832    259.06585   -6504.3904     6501.765    91.222478    22.784703 
136744000    287.76148    311.97808    604.74529   -6526.8648    6534.4769   -292.76721    22.825127 
136748000    296.12176     276.4368     372.7883   -6562.7674    6557.0474   -96.351503    22.642697 
136752000    273.97232    403.62439    184.03632    -6605.065    6619.5401    219.58807    22.771869 
136756000    276.44815    330.43207    477.82976   -6652.0167    6662.3619    -147.3977    22.424651 
136760000    271.64893    395.50065    261.61577   -6678.6494    6695.8578    133.88488    22.474628 
136764000    278.48392    447.38802    400.42741   -6739.5862    6747.0283    46.960608    22.491665 
136768000    241.57658    233.74421    291.90681    -6741.892    6755.3175   -58.162592    22.447728 
136772000    285.51921    234.05823    301.17521   -6807.1238    6788.3603   -67.116977    22.424168 
136776000    313.14115    216.39193    365.87269    -6842.658    6835.2325   -149.48076     22.43351 
136780000     303.7726    459.53673    381.35829    -6857.045    6844.1318    78.178448    22.496826 
136784000     304.8027    394.27189     262.6049   -6905.3737    6902.3653    131.66699    22.608005 
136788000    297.05548    363.87923    507.38182   -6955.8552    6936.4879   -143.50259    22.569779 
136792000    266.34762    281.91013    230.26293   -6958.5725     6957.268    51.647202    22.510464 
136796000    261.57402    192.45385    309.50243   -7017.1429    7027.0799   -117.04858    22.450366 
136800000    278.07684    259.20576    665.59571   -7038.2236    7051.6672   -406.38995    22.530316 
136804000    314.11523    366.37984     341.9301   -7114.5201     7107.821    24.449741    22.575848 
136808000    265.79296    228.60084     285.8513   -7106.6118    7126.9863   -57.250459    22.410179 
136812000    278.82552    326.88639    265.08651    -7154.751    7156.5535    61.799873    22.433834 
136816000    270.10697    297.88421    463.74223   -7190.4184    7179.6326   -165.85802     22.28209 
136820000    278.44046     269.6407    404.06247   -7203.9794    7219.4079   -134.42177    22.144422 
136824000    260.26691    495.22854    330.33323      -7239.5     7269.833    164.89531    22.092244 
136828000    254.78076    206.57237    301.72922    -7305.094    7318.9816   -95.156843    22.030107 
136832000    285.08978    271.73305    373.33658   -7343.7073    7357.7837   -101.60353    21.971858 
136836000    308.95345    551.68044     272.8649   -7398.2477    7383.6068    278.81555    21.869278 
136840000     265.6102    299.51714    290.26024   -7390.9381    7420.4349    9.2569004    21.779826 
136844000     295.4227    483.15465    453.66825   -7445.1437    7438.5868    29.486401    21.779977 
136848000    279.79323    427.22439    271.39996    -7464.569    7477.7614    155.82443     21.82035 
136852000    288.35343    294.72315    304.46376   -7511.6148    7512.0785   -9.7406084     21.69316 
136856000    256.15979    320.40651    215.44867   -7537.5555    7533.6593    104.95784    21.677315 
136860000    305.35523    314.35218    528.17543    -7581.865    7563.9585   -213.82325    21.695959 
136864000    298.14152    262.22498    492.71685   -7623.0049    7602.9103   -230.49187    21.681019 
136868000    307.68108    388.71081    256.90762   -7652.8382     7649.875    131.80319    21.897049 
136872000    294.68866    313.41923    318.90631   -7690.8329    7694.4873   -5.4870728    21.980774 
136876000    305.09036    277.17616    355.08652   -7744.1696    7744.9719   -77.910361      21.8634 
136880000    310.46436    381.67662      326.678   -7800.3029    7783.9054    54.998625      22.0677 
136884000    290.22509    249.68452    235.12105   -7845.3566    7843.7666    14.563474    22.175702 
136888000    289.92305    245.39038    409.66182   -7896.1419    7875.6356   -164.27144    22.162058 
136892000    299.78802    188.81024    310.19603   -7966.5076    7970.7122   -121.38578    22.036525 
136896000    332.48476    539.35211    302.06122   -8042.7409    8028.2353    237.29089    22.145926 
136900000    300.81185    558.67694    92.768882   -8109.7058    8084.3419    465.90805    22.087068 
136904000    278.18483    340.27251    320.22186   -8110.9426    8124.4638    20.050652    22.122451 
136908000    280.16558    459.81435    360.05778   -8172.5775    8180.1319    99.756563    22.002994 
136912000    293.65386    299.36544    277.18903   -8185.3767    8179.2692    22.176411     21.93869 
136916000    267.82466    386.57112     364.2506   -8216.6852    8228.7793    22.320516    21.832698 
136920000     271.8771    392.32291    276.21253   -8245.6259    8249.1794    116.11038    21.900889 
136924000    274.35401    232.33848    298.63427   -8278.6345     8287.213   -66.295788    21.871475 
136928000    305.67639    298.70425    344.83474   -8338.6884    8323.6947   -46.130483    21.917178 
136932000    294.28863     314.6874    253.23163   -8376.0559     8354.641    61.455773    21.871836 
136936000    264.01905    372.27717    568.55528   -8390.0443     8403.096   -196.27811    21.902133 
136940000    275.56732    374.47184    277.90707   -8382.2285    8392.4867    96.564772    22.014723 
136944000    282.77417    377.33204    276.96039   -8452.0977    8457.7055    100.37165    21.905872 
136948000    272.94866    378.86674    412.26835   -8480.9877    8501.3583   -33.401603    21.983155 
136952000    282.50203    419.86914    310.14529   -8530.6989    8540.0481    109.72385    21.935572 
136956000    268.21685    285.76778    378.15559   -8558.5575    8580.0571   -92.387807    21.984408 
136960000    258.03227    359.96863    264.76453   -8588.1664    8618.8748    95.204102    22.039514 
136964000    280.47293    322.49074    334.12028   -8653.6675    8667.5549   -11.629532    22.048783 
136968000     291.2387     511.0316    402.03434   -8725.1604    8717.2702    108.99726    21.926575 
136972000    289.34382    312.26328    313.35759   -8737.0003     8759.668   -1.0943142    21.797001 
136976000    286.93434    424.57019    185.31281   -8795.2543     8807.944    239.25738    21.890555 
136980000    292.50046     380.3743    344.53424    -8858.868    8842.6672    35.840065    22.011049 
136984000    327.25079    449.48315    486.70318   -8907.7633    8878.8659   -37.220028    21.904689 
136988000    281.58578    310.45257     306.5409   -8963.8925    8947.5912    3.9116754     21.76872 
136992000    315.90599    277.66052    370.03409   -9021.9819     8997.505   -92.373569    21.847841 
136996000    286.92199    205.41153    172.85015   -9028.6786     9046.594    32.561377    21.729885 
137000000    284.66736    299.40295     507.5398   -9063.5436     9068.943   -208.13685    21.715033 
137004000    271.60096    419.45235    176.45971    -9108.099    9109.5188    242.99264    21.791151 
137008000     271.9671     349.0798    148.05691   -9113.9007    9118.5518    201.02289    21.827014 
137012000     302.1155    336.41043    318.44452   -9183.6503    9173.4282    17.965902    21.786949 
137016000    317.06905     342.2013    280.72573   -9234.6634    9198.7848    61.475566    21.757158 
137020000    318.34701    564.53096    356.85254    -9253.273    9239.8764    207.67842    21.918917 
137024000    287.03041    280.46872    371.73756   -9276.8436    9291.3671   -91.268849     21.76508 
137028000    287.54838    424.08942    170.56007   -9339.6536    9341.4758    253.52934    21.793155 
137032000    292.13966     395.8138    317.64253   -9360.0467     9357.179     78.17127    21.747663 
137036000    268.97135    343.67942    273.73918   -9391.0762    9401.5255    69.940234    21.702862 
137040000    253.04956    307.99116    234.78513   -9416.0632    9433.8918    73.206027    21.802935 
137044000    296.75597    431.05558    302.11106   -9478.0311    9483.8758    128.94451    21.695505 
137048000    240.63433    220.35597    238.95063   -9501.6759     9525.563   -18.594662    21.608133 
137052000    270.22738     284.9692    338.29853   -9553.9973    9574.3107   -53.329331    21.583417 
137056000    289.18101    323.97178     381.0366   -9605.0294    9586.6594   -57.064815    21.549524 
137060000    274.96793     222.9074    426.54441   -9630.4719    9647.7678   -203.63702    21.483179 
137064000    280.29652    220.01212    318.76106    -9670.324    9681.1454   -98.748935    21.396021 
137068000    281.44131    337.25593    224.92323   -9722.5083    9723.0696     112.3327    21.472176 
137072000    279.34344    219.78338    375.03906   -9706.8421    9737.3287   -155.25568     21.48405 
137076000    291.29759    422.97531    224.54761    -9791.432    9784.6234     198.4277    21.531308 
137080000    301.56991    415.12989    289.11953   -9864.6118    9868.5531    126.01037    21.448135 
137084000    285.49727      321.069     244.4148    -9885.971    9883.6567    76.654197    21.479593 
137088000    276.50787    292.12938    236.72833   -9919.0869    9934.9627    55.401051    21.517294 
137092000    291.00613    399.15351    302.16412   -9947.3795    9954.6108    96.989388    21.473443 
137096000    282.81262    346.14993    230.38133   -10002.861    10002.801    115.76859    21.550741 
137100000    256.87738    433.99896    474.49406   -10041.145    10062.018   -40.495094      21.5747 
137104000    260.80994    351.11847    157.72854   -10085.876    10104.301    193.38993    21.821676 
137108000    261.92108    350.55364    296.39572   -10125.907    10132.401    54.157917    21.670883 
137112000    293.70056    471.37596    482.34959   -10139.647    10135.199   -10.973631    21.811359 
137116000    277.41595    219.75982    402.02536   -10167.773    10175.801   -182.26554    21.842887 
137120000    284.45578    429.99156    350.02264   -10228.406    10219.192    79.968922    21.920358 
137124000     295.9406    253.55474    236.56807   -10267.795    10268.364    16.986675    21.930127 
137128000    286.63053    362.08765     369.8425   -10346.522    10340.678   -7.7548565    22.034425 
137132000    259.99425    276.29014     262.6892   -10400.118    10402.879    13.600947    21.937339 
137136000    289.03833    276.35573    265.53879   -10419.156    10420.241    10.816945    21.731897 
137140000    274.33328    442.03912     341.7601   -10444.347    10471.092    100.27901    21.771315 
137144000    264.95045    414.76792     330.0034   -10490.986    10497.934     84.76452    21.958013 
137148000    260.75995    252.44397    453.51659    -10513.25    10529.701   -201.07262     21.97872 
137152000    268.20996    318.75562    385.29525   -10569.521     10566.32   -66.539631    21.912896 
137156000    257.46899    330.09906    268.66371   -10592.612    10614.403    61.435346     21.84719 
137160000    274.83508     288.3171    216.91485   -10604.828    10613.549     71.40225    21.858548 
137164000    302.40177    248.41268    242.88717   -10647.733     10657.71    5.5255094     21.82469 
137168000    287.33996    412.33519    393.96117   -10696.082    10682.934    18.374021    21.958863 
137172000    267.07804     464.4645    413.44436   -10738.935     10767.13    51.020137    22.004181 
137176000    293.62144    377.37027    268.36614   -10803.337    10800.544    109.00412    22.034527 
137180000     274.5144    243.92809    295.85869    -10835.64    10855.342   -51.930597    22.057818 
137184000    313.30519    305.44643    396.71221   -10896.257    10884.372   -91.265776    21.868177 
137188000    247.53604    187.85967    163.44138   -10928.247    10940.921    24.418292    21.908207 
137192000     256.6576    267.63713    355.50324   -10976.024    10986.109   -87.866111    21.998285 
137196000    296.07208    306.53396    460.62511    -10999.31    10990.944   -154.09115    22.060151 
137200000    305.78103    380.10733    402.77316   -11089.281    11089.949    -22.66583    22.066387 
137204000    261.04287    471.10796     323.2948   -11088.987    11095.089    147.81316    22.072043 
137208000    297.09643    314.21713    279.72814   -11096.419      11102.7    34.488986    22.135977 
137212000    277.69683    482.08389     412.0377   -11158.149    11152.974    70.046187    22.326123 
137216000    254.97307    258.15845    336.46687   -11153.789    11167.375   -78.308415    22.270098 
137220000    288.39639     579.2508    246.45779   -11207.155    11210.908    332.79301    22.231083 
137224000    291.70527     301.2544    423.17958   -11237.002    11245.344   -121.92518    22.105782 
137228000    282.23749    340.86098    432.65933   -11291.576    11287.311   -91.798344    22.205742 
137232000    265.25069    388.80392    324.74047   -11315.187    11327.834    64.063452    22.279767 
137236000    299.34274    334.63678    458.96634   -11390.156    11380.424   -124.32956    22.312473 
137240000    293.37323    226.29635    218.83454   -11441.939    11439.823    7.4618042    22.226636 
137244000    276.12217     376.4151     246.5675   -11504.645    11510.133     129.8476    22.288816 
137248000    275.11474    434.73523     374.8542   -11511.935    11522.138    59.881034      22.3485 
137252000    289.18887    338.69037    323.33347   -11578.555    11575.828    15.356908    22.399511 
137256000    332.76859    498.26591    497.46544   -11609.228    11584.827   0.80047621     22.28306 
137260000    261.86978    283.54443    456.62575    -11623.89    11640.082   -173.08132    22.293283 
137264000    282.09631    339.34313    440.75636   -11665.346    11666.454   -101.41323    22.292178 
137268000    302.85658    365.72304    398.89029   -11741.716    11723.679   -33.167249    22.320753 
137272000    306.56219    495.96084     315.8054   -11789.014    11755.399    180.15544    22.335751 
137276000    266.59515     271.2842    233.70925   -11809.777    11804.727    37.574949    22.266246 
137280000    277.26759    322.83813    306.09696   -11835.525    11839.014    16.741161    22.240777 
137284000    251.20634    303.14489      282.848    -11876.24    11906.155    20.296888    22.271308 
137288000    317.86704    544.50275    316.99762   -11944.983    11941.001    227.50512    22.429011 
137292000    279.84541    453.34242    551.84199   -11997.754     11988.34   -98.499571    22.393633 
137296000    272.55771    476.93437    302.17486   -12043.749    12032.659    174.75952    22.312666 
137300000    293.68298    438.26977    240.79064   -12069.328    12073.206    197.47913    22.277895 
137304000    292.50336    249.51347    222.25394   -12118.375    12122.122    27.259525    22.368432 
137308000    281.81322     288.9857    537.91315   -12163.753    12175.912   -248.92744    22.343501 
137312000    302.51761    551.59535    225.69755   -12202.707    12197.093     325.8978    22.544447 
137316000    297.23656    386.02593     262.0599   -12263.905    12264.349    123.96604    22.421642 
137320000    279.51768    334.40985    378.00509   -12288.597    12294.296   -43.595244    22.480491 
137324000    283.71987    464.35459    232.77932   -12329.969    12348.487    231.57527    22.394423 
137328000     280.9198    239.91767    199.92951   -12393.393    12402.967    39.988168    22.293417 
137332000    279.77303    178.85198    329.83354   -12426.963    12427.481   -150.98156    22.348469 
137336000    274.98715    221.52141    337.25855   -12499.988    12485.717   -115.73714     22.47019 
137340000    302.99831    464.92444    171.79968   -12539.965    12533.223    293.12476    22.501962 
137344000    295.25996    309.22106    244.88295   -12577.375    12578.722     64.33811    22.521586 
137348000    269.44923    339.13317    378.47329   -12625.795    12631.326    -39.34012    22.539637 
137352000    302.40166     365.8468    249.17176   -12676.287     12665.55    116.67504    22.576292 
137356000     324.8766    393.13962    352.46536   -12753.478    12729.145    40.674253    22.640408 
137360000    283.91312    491.15731    345.51674   -12793.367    12802.125    145.64057    22.727152 
137364000     281.9688     387.2533    231.17017   -12836.652    12851.634    156.08313     22.76056 
137368000    268.99054    409.31621    204.85494   -12877.501    12895.317    204.46127    22.805434 
137372000    249.49576    344.14555    153.71861   -12913.357    12951.781    190.42694    22.878372 
137376000    277.18487    263.85273     274.9975   -12988.907    12994.837   -11.144764    22.857633 
137380000    278.75029    265.02216    194.99797   -13051.102    13053.634    70.024189    22.893552 
[...]
167328000    307.25795     268.9983    427.86143   -306878.14    306944.74   -158.86313    23.382825 
167332000     289.2754     366.3024    471.28995   -306876.22    306974.56   -104.98755    23.384177 
167336000     282.2091    266.45768    305.75128   -306888.93    306971.18   -39.293603    23.385754 
167340000    280.30081    330.31431    322.57094   -306901.97    306981.44    7.7433673    23.387203 
167344000    291.02399    246.44448     203.3534   -306946.96    307034.91    43.091077    23.386814 
167348000    284.63972    266.00561     342.6452   -307024.05    307112.35    -76.63959    23.387139 
167352000    268.53055    340.14446    321.33749   -307040.44    307130.93    18.806975    23.392898 
167356000    283.06645    301.23066     409.6711   -307088.85    307173.88   -108.44044    23.392507 
167360000    306.19721    524.48397    335.12807   -307129.52    307203.06     189.3559    23.392295 
167364000     267.2701    281.82069    430.16368   -307156.49    307251.07   -148.34299    23.393274 
167368000    277.15199    337.67111    394.26919   -307206.74    307290.02   -56.598086    23.389486 
167372000    273.60508    771.57016    432.40826   -307247.26    307353.13     339.1619    23.390386 
167376000    284.37914    211.39499    338.03514    -307288.7    307397.21   -126.64015    23.386436 
167380000    275.20995    153.22957    386.56998   -307326.18    307415.94   -233.34041    23.387295 
167384000    292.26563    317.76719    251.40732   -307348.49    307444.94     66.35987    23.387835 
167388000    258.14328    458.06855    311.98441   -307402.34    307511.11    146.08415    23.386916 
167392000    262.31874    449.16934    257.91559    -307467.7    307578.33    191.25375    23.386248 
167396000    319.51333     506.8973    294.90993   -307523.68    307584.87    211.98737    23.384654 
167400000    296.21133    284.89702    372.38382   -307560.83    307637.01   -87.486796    23.379703 
167404000    292.69218    329.87592      259.078   -307601.16    307690.94    70.797922    23.378975 
167408000    268.90478       376.89    339.38849    -307624.5    307724.08    37.501502    23.383357 
167412000     264.2413    456.90655    275.80832   -307659.48    307768.13    181.09822    23.384527 
167416000     265.1323    381.88992    160.40512   -307720.74    307821.16    221.48481    23.384516 
167420000    319.38767    512.29712    279.66779   -307797.95    307834.38    232.62932    23.385577 
167424000    319.05682    391.27291    323.33549   -307825.68    307885.22    67.937418    23.377938 
167428000    265.52941    396.60121    336.93919   -307818.16    307915.27    59.662016     23.38259 
167432000    307.33874    264.27221    366.43755   -307870.95     307943.3   -102.16534    23.376327 
167436000    296.46516    302.64033    267.15188   -307894.65    307984.75    35.488449    23.375115 
167440000    259.86001    255.12357    287.82696   -307923.71     308027.3    -32.70339    23.376423 
167444000    269.29862      492.131    188.60966   -307978.05    308074.01    303.52134    23.373246 
167448000    262.37411    335.30577    325.37452   -308039.14    308126.24    9.9312462    23.371168 
167452000    285.59699    293.46801    305.86316   -308105.11    308157.08   -12.395156    23.370265 
167456000    310.67651    403.27556    432.61921   -308117.21    308190.47   -29.343649    23.371637 
167460000    259.16726    278.42029    269.94107   -308157.84    308247.64    8.4792245    23.367652 
167464000    234.09488    203.51543    174.00862   -308197.59    308302.74    29.506816    23.371468 
167468000      277.418    349.79647    326.27103   -308249.99    308337.79     23.52544    23.372809 
167472000    263.14587    358.47897    232.35587   -308269.94    308379.85     126.1231    23.371027 
167476000    289.25623     544.0076    278.26518   -308341.25    308424.86    265.74242     23.36945 
167480000    280.80205    229.00327    508.59038    -308391.1    308484.45   -279.58711    23.367293 
167484000    258.21925       283.69    440.13416   -308424.72    308539.96   -156.44416    23.365416 
167488000    283.19145    355.26127    446.82862   -308486.09     308570.8   -91.567347    23.363204 
167492000    293.52786    213.24455    380.36604   -308508.21     308583.8    -167.1215    23.367919 
167496000     270.5015    335.24606    305.38023   -308521.97    308605.21    29.865827    23.365618 
167500000    250.03631    253.92956    312.48393   -308557.42     308650.8   -58.554367    23.361973 
167504000    254.12147    300.00632    396.27271   -308576.88    308677.82   -96.266393    23.362491 
167508000    263.17241    403.36443    531.15861   -308631.03     308740.5   -127.79418    23.360381 
167512000    298.02148    359.09529    328.50482   -308703.08    308777.97    30.590471    23.358641 
167516000    281.09567    304.64703    379.26693   -308718.14    308816.81   -74.619901    23.356048 
167520000    244.88759    400.87678    270.20721   -308764.33    308866.18    130.66957    23.354001 
167524000    265.41744    505.87732    188.65364   -308813.79    308926.02    317.22368    23.354892 
167528000     265.5026    306.99898    327.55313   -308875.55    308973.12   -20.554153    23.353825 
167532000    286.87808     407.3459    268.83794   -308921.47    309000.68    138.50796    23.355987 
167536000    270.78291    223.06182     509.9012   -308947.16    309043.85   -286.83938     23.35297 
167540000    270.27039    430.24501    215.26575   -308978.06    309080.16    214.97925    23.352403 
167544000    282.96213    452.41767    333.68811   -309024.63    309113.95    118.72955    23.352181 
167548000    313.48363    317.25012     266.9042   -309122.93    309180.52     50.34592    23.350693 
167552000     308.2218    359.46705    285.89843   -309153.42    309238.78    73.568619    23.349925 
167556000    288.33065    304.05669    248.88875    -309176.6    309272.44    55.167941    23.355693 
167560000    314.53046    475.31882    228.02575   -309216.54       309292    247.29308    23.355599 
167564000    293.41793     371.8616    294.47183   -309229.73    309321.57    77.389776    23.355467 
167568000    278.88383    374.66545    357.47906   -309250.61    309360.26    17.186399    23.356559 
167572000    260.87859    152.71279    300.66455   -309296.04    309401.81   -147.95176    23.354463 
167576000    291.45286    357.12486    349.48645   -309371.07    309464.14    7.6384053     23.35411 
167580000    268.01039    381.15131    252.76968   -309442.81    309531.86    128.38163    23.352179 
167584000    257.91315    421.37315    414.91579   -309436.44    309550.54    6.4573596     23.35183 
167588000    302.29167    492.82321    397.74378   -309521.35     309592.3    95.079424    23.350735 
167592000    285.16715    296.32072    285.44156   -309582.72    309669.35    10.879157    23.351148 
167596000    285.43813    584.92581    274.58333   -309637.62    309724.58    310.34248    23.348758 
167600000    265.52581    349.81763    203.06852   -309681.16    309761.42    146.74911    23.348584 
167604000    289.91312    336.56956     428.8348   -309717.21    309805.94   -92.265238    23.349682 
167608000    262.01079    210.23716    217.81235   -309789.91    309883.84   -7.5751902    23.345519 
167612000    248.60715    321.52809    437.11209    -309827.7    309929.95     -115.584     23.35055 
167616000    288.76149    367.42119    341.84575   -309861.03    309948.23    25.575443    23.353479 
167620000    265.32064    311.57319    380.98581   -309924.13    310021.66   -69.412619    23.352638 
167624000     278.1285     272.5722     428.6856   -309960.11    310052.68    -156.1134    23.351019 
167628000    297.70158    338.60768    461.56421   -309997.12    310084.25   -122.95653     23.35114 
167632000    318.31055    481.24109     358.4634   -310072.82    310131.91    122.77769    23.348448 
167636000    270.07776    325.11198    300.38443   -310080.67    310186.23     24.72755    23.351373 
167640000    275.36522    448.53066    330.80048   -310146.45    310233.89    117.73018    23.351171 
167644000    285.27499    288.97712    345.09698   -310215.03    310308.71   -56.119852    23.352024 
167648000    281.19937    287.92002     392.9515    -310293.8     310377.9   -105.03148    23.351397 
167652000    288.96151    388.46087    251.93058   -310314.93    310403.67    136.53029    23.349033 
167656000    307.77401    422.20691     301.7766   -310374.33    310451.92    120.43031    23.348161 
167660000    286.16393    298.71587    221.12534   -310422.58    310517.24    77.590522    23.349286 
167664000    294.69726     223.5108    223.71602   -310450.31     310529.4  -0.20521527    23.346122 
167668000    273.61859     320.3325    292.84984   -310468.74    310562.17    27.482663    23.345769 
167672000    288.01603    403.28892    258.46986   -310506.66    310600.74    144.81906    23.342869 
167676000    278.58703    337.64818     409.4482   -310543.57    310632.51   -71.800026     23.34343 
167680000     277.1457    429.97862    337.32642    -310586.1    310669.27    92.652204    23.344765 
167684000     300.4876    276.62808    283.43711   -310636.44    310722.89   -6.8090302    23.344655 
167688000    281.66272    356.68678    346.69769   -310660.98    310763.24    9.9890898    23.347377 
167692000    274.37895    426.09188    326.33777   -310682.31    310783.48    99.754111    23.345501 
167696000    280.25513    351.60747    434.64719   -310700.92    310792.62   -83.039722    23.341991 
167700000    274.47348    334.18108    244.25404    -310759.9    310846.14    89.927045    23.341285 
167704000    303.14233    564.10206    251.95471   -310825.11    310907.19    312.14736    23.342874 
167708000     273.6348    243.57661      323.574   -310905.41    310998.51   -79.997388    23.344187 
167712000    285.72965    456.72922    288.50185   -310929.72    311021.48    168.22737    23.345082 
167716000    271.64581    371.76351    473.31351    -310990.7    311086.84      -101.55    23.344859 
167720000    304.76636    429.12242    522.17544   -311024.28    311102.57   -93.053026    23.344807 
167724000    253.66258    469.24168    227.34493   -311063.54    311150.85    241.89675    23.341714 
167728000    265.72981    209.52358    367.37684   -311090.49    311204.37   -157.85326    23.342576 
167732000     278.0477    333.09747    285.13495   -311151.94    311236.11    47.962524    23.340794 
167736000    314.21166    417.70112    522.84434   -311198.11    311263.18   -105.14322     23.33758 
167740000    235.18627    246.78344    273.31681   -311237.54    311331.56   -26.533371    23.336615 
167744000    236.48176    252.01457    310.05201   -311290.82    311400.88   -58.037446    23.339805 
167748000    301.20979    464.92259    268.95991   -311342.51    311418.67    195.96268    23.340466 
167752000    288.21079    408.44667    308.67485   -311366.28    311458.48    99.771822    23.340306 
167756000    307.81148    442.17816    332.91089    -311433.7    311500.06    109.26727     23.33734 
167760000    284.68488    267.84852    393.63188   -311471.18    311556.93   -125.78336    23.338918 
167764000     265.5931    352.66993    287.18187   -311486.76    311567.72    65.488066    23.339469 
167768000    282.96886    323.93685    283.43564   -311535.42    311627.23    40.501211    23.341295 
167772000    261.72351    223.30693    230.85265   -311582.47    311684.34   -7.5457118    23.340559 
167776000    284.20158    460.97025     183.5757   -311614.03    311705.25    277.39456    23.343521 
167780000     268.9796    258.20434    277.11658   -311657.74    311752.09   -18.912248    23.338898 
167784000     280.1393    392.27465    234.08226   -311709.08    311805.52     158.1924    23.338445 
167788000    266.60191    365.39653    274.38345   -311731.73    311831.75    91.013075    23.336784 
167792000    262.36248    408.88394    281.90527    -311757.4    311860.51    126.97867    23.338058 
167796000    291.86531    273.44201    617.70405   -311768.21    311861.54   -344.26204     23.33804 
167800000    242.72271    342.10486    253.30536   -311765.82     311885.3    88.799502    23.338805 
167804000    299.24632     429.3729    240.71562   -311796.33    311896.25    188.65728    23.341852 
167808000     305.8663    372.40063    318.12965   -311894.41    311949.91     54.27098    23.335524 
167812000    268.58091    337.61832    248.89653      -311882    311985.69     88.72179    23.335794 
167816000    261.39959     332.4027    176.68514   -311914.94    312006.62    155.71755    23.331419 
167820000    287.53008    408.91492    399.83124   -311952.11    312052.18    9.0836809    23.329476 
167824000    259.15665    321.06247    283.83447   -311971.73    312056.39    37.227998    23.330837 
167828000    276.37069    312.75151    304.17841   -312036.96    312122.69    8.5730976     23.32941 
167832000    290.95825    370.29128    359.65646   -312078.78    312163.65    10.634825    23.328179 
167836000    270.43543    289.32388     563.4043    -312097.2    312188.72   -274.08042    23.324137 
167840000    268.15608    251.47118    227.31074   -312140.99    312237.84    24.160447    23.324817 
167844000    275.46988    525.80203     214.1633   -312176.89    312271.26    311.63873    23.323928 
167848000    255.06241    246.66985    232.72618   -312167.97    312284.89    13.943676     23.32096 
167852000    286.43921    401.40935    356.78991   -312248.83    312330.42    44.619446    23.321143 
167856000    285.44951     266.1544    241.39557   -312288.23    312368.57    24.758824     23.31724 
167860000    292.99299    348.41715    413.43356   -312359.21    312451.66   -65.016405    23.317331 
167864000    269.30275    518.12059    236.01205   -312395.62    312483.51    282.10854    23.318489 
167868000    257.45232    221.98089    320.42691   -312387.71    312491.43   -98.446017    23.313363 
167872000     252.6388    286.99744    372.90844   -312427.32    312538.43      -85.911    23.312291 
167876000    292.98337    406.13373    276.25206   -312489.98    312567.83    129.88168    23.319091 
167880000    311.51516    328.95066    439.30155    -312511.3    312574.58   -110.35089    23.315343 
167884000    285.26626    433.32451    397.66393   -312511.32    312614.15     35.66058    23.318798 
167888000    295.48861    351.30157    323.76624   -312561.52    312637.42    27.535327    23.316333 
167892000    280.59155    365.34932    351.30452   -312586.29     312681.8    14.044805    23.312676 
167896000    280.66058     372.6775    447.55692    -312622.7    312715.16   -74.879417    23.311777 
167900000    287.41739    417.53649    556.51437   -312698.24     312791.2   -138.97788    23.309452 
167904000    263.43486    269.42722    270.49532   -312734.41    312808.19      -1.0681    23.306419 
167908000    303.72329    371.80545    278.38275   -312721.42    312787.56    93.422703    23.308267 
167912000    304.33836    388.26446    245.31505   -312777.15    312849.74    142.94942    23.317385 
167916000      288.092    304.98283    207.56178   -312790.03    312869.74    97.421053    23.315034 
167920000    282.07389    396.52528    190.34962   -312807.37    312887.43    206.17565     23.31843 
167924000    307.15931    356.18925     264.7691   -312871.31    312947.78    91.420146    23.320007 
167928000    278.45885    464.13895    312.50991   -312909.25    312975.94    151.62904    23.323376 
167932000    260.76867    273.04953    260.72908   -312946.22    313054.48    12.320457    23.319131 
167936000    293.26428    244.64933     350.3463   -313015.61    313099.48   -105.69696    23.316359 
167940000    320.55421    481.26772    405.69442   -313056.98    313113.71    75.573299    23.318706 
167944000    261.86576    162.46325    336.24475   -313079.87    313180.53   -173.78151    23.318941 
167948000    268.39199    271.99476    274.38801   -313114.81    313229.28   -2.3932502    23.321723 
167952000    290.63312    327.81978    308.80174   -313114.64    313223.15    19.018037    23.324597 
167956000    281.63496     337.0342    294.83265   -313181.57    313257.72    42.201551    23.322882 
167960000    232.33524    264.09665    200.45744   -313204.78    313318.82    63.639204    23.325586 
167964000    263.95615    386.40746    224.47288   -313236.49    313323.38    161.93458    23.326505 
167968000    281.51562     319.0288     270.9196   -313267.23    313360.26    48.109194    23.325796 
167972000    288.93182    253.70199    382.51956   -313310.94     313399.1   -128.81757    23.326542 
167976000    301.85389    508.31619    302.48111   -313382.75    313465.32    205.83509    23.330335 
167980000    297.52746    262.80239    454.00828   -313424.81    313513.63   -191.20589    23.326776 
167984000    277.69872    330.65888    279.78227      -313462    313550.21    50.876613    23.327239 
167988000     273.2105    504.04719    285.99604   -313488.31    313574.01    218.05115    23.331355 
167992000    261.72582    358.99286    297.59883   -313518.69    313608.65    61.394031    23.330868 
167996000    304.10858    373.27729      286.158   -313554.94     313632.1     87.11929    23.331543 
168000000    323.32006    490.65874    279.19806   -313582.69    313641.76    211.46068    23.334745 
168004000    287.52369    259.67326      513.926   -313582.11    313669.47   -254.25275    23.334215 
168008000    297.71809     249.3231    387.22333   -313596.26    313661.47   -137.90023    23.337387 
168012000    294.51899    259.61906    398.30927   -313637.17    313718.43   -138.69022    23.332136 
168016000    275.32684     262.1091    194.09239   -313644.32    313742.46    68.016704    23.336805 
168020000    283.62127    169.57854    314.16277   -313695.15    313771.05   -144.58422    23.337031 
168024000    260.53378    226.27755    294.78622   -313753.68    313859.37   -68.508667    23.338307 
168028000     283.0418    316.54404    539.11535   -313769.53    313858.07   -222.57131    23.338405 
168032000    300.94067    273.43141    255.74015   -313817.19    313888.34    17.691254    23.346111 
168036000    277.57026    370.58289     293.7199    -313818.2    313918.39    76.862985      23.3498 
168040000    274.48803    269.59527    269.23827   -313841.91    313927.53   0.35699636    23.354221 
168044000    282.32394    363.68359     377.9779   -313884.35    313976.57   -14.294308    23.354934 
168048000    276.17784    217.95015    439.19705   -313935.87    314028.58    -221.2469    23.356258 
168052000    294.51561    316.01753    431.19584   -313966.23     314049.4   -115.17831    23.356078 
168056000    286.70856    278.20314    320.39956   -313988.62    314078.92   -42.196425    23.354929 
168060000    286.16699    381.32669     173.0843   -314046.09    314129.07     208.2424    23.357311 
Loop time of 2237.55 on 4 procs for 32000000 steps with 196 atoms

Performance: 1544.544 ns/day, 0.016 hours/ns, 14301.331 timesteps/s
99.9% CPU use with 4 MPI tasks x no OpenMP threads

MPI task timing breakdown:
Section |  min time  |  avg time  |  max time  |%varavg| %total
---------------------------------------------------------------
Pair    | 469.85     | 501.09     | 531.3      | 126.3 | 22.39
Bond    | 700.02     | 822.38     | 965.73     | 400.0 | 36.75
Neigh   | 5.2151     | 5.3001     | 5.3796     |   2.6 |  0.24
Comm    | 260.85     | 429.73     | 569.55     | 549.8 | 19.21
Output  | 8.8298     | 10.438     | 12.479     |  49.6 |  0.47
Modify  | 395.03     | 403.11     | 410.75     |  31.2 | 18.02
Other   |            | 65.51      |            |       |  2.93

Nlocal:    49 ave 60 max 34 min
Histogram: 1 0 0 0 0 1 0 0 1 1
Nghost:    147 ave 162 max 136 min
Histogram: 1 1 0 0 0 1 0 0 0 1
Neighs:    978.75 ave 1210 max 713 min
Histogram: 1 0 0 0 1 0 0 1 0 1

Total # of neighbors = 3915
Ave neighs/atom = 19.9745
Ave special neighs/atom = 5.87755
Neighbor list builds = 66225
Dangerous builds = 0

write_restart FINALCONFIG

Total wall time: 0:39:08
