LAMMPS UA chain data file
 
         72  atoms
         70  bonds
         68  angles
         66  dihedrals
           0  impropers
 
           3  atom types
           1  bond types
           1  angle types
           1  dihedral types
           0  improper types
 
    -400.000000     400.000000 xlo xhi
    -400.000000     400.000000 ylo yhi
   -0.050000      45.000000 zlo zhi
 
Masses
 
  1   14.00
  2   14.00
  3   14.00
 
Atoms

 1 1 3 -3.03433 0.36635 -0.00442127 0 0 0
 2 1 3 -1.48721 0.964977 0.689573 0 0 0
 3 1 3 -0.327268 1.12186 2.05414 0 0 0
 4 1 1 0.778861 0.16225 3.25531 0 0 0
 5 1 1 0.650995 -1.18977 4.46329 0 0 0
 6 1 1 -0.527555 -1.91865 5.69136 0 0 0
 7 1 1 -1.71759 -1.43249 7.05139 0 0 0
 8 1 1 -1.99492 -0.200814 8.3908 0 0 0
 9 1 1 -1.066 0.792245 9.7062 0 0 0
 10 1 1 0.272651 0.519531 11.0153 0 0 0
 11 1 1 0.797622 -0.660698 12.3615 0 0 0
 12 1 1 0.0980928 -1.7935 13.6704 0 0 0
 13 1 1 -1.26544 -1.86474 14.9834 0 0 0
 14 1 1 -2.00369 -0.87976 16.3088 0 0 0
 15 1 1 -1.53993 0.440844 17.5979 0 0 0
 16 1 1 -0.265996 0.728427 18.9088 0 0 0
 17 1 1 0.725443 -0.113343 20.2521 0 0 0
 18 1 1 0.615836 -1.4805 21.5262 0 0 0
 19 1 1 -0.621267 -2.16982 22.7827 0 0 0
 20 1 1 -1.7716 -1.63817 24.1453 0 0 0
 21 1 1 -2.00381 -0.339718 25.5016 0 0 0
 22 1 1 -1.00483 0.524851 26.8146 0 0 0
 23 1 1 0.251651 0.193565 28.1107 0 0 0
 24 1 1 0.70418 -1.09155 29.3486 0 0 0
 25 1 1 -0.131321 -2.18704 30.6328 0 0 0
 26 1 1 -1.51512 -2.18364 31.8747 0 0 0
 27 1 1 -2.35025 -1.09772 33.1323 0 0 0
 28 1 1 -1.90817 0.122093 34.4568 0 0 0
 29 1 1 -0.632909 0.494164 35.7619 0 0 0
 30 1 1 0.495746 -0.353005 36.9996 0 0 0
 31 1 1 0.354568 -1.7417 38.252 0 0 0
 32 1 1 -0.748954 -2.38371 39.5849 0 0 0
 33 1 1 -2.25709 -2.05744 40.5379 0 0 0
 34 1 2 -3.2105 -0.9516 41.6799 0 0 0
 35 1 2 -2.7795 -1.602 42.9777 0 0 0
 36 1 2 -3.1141 -0.6745 44.2171 0 0 0
 37 2 3 1.71293 -0.84855 -0.00442127 0 0 0
 38 2 3 0.209041 -1.49846 0.680469 0 0 0
 39 2 3 -1.03441 -1.6996 2.05607 0 0 0
 40 2 1 -2.02039 -0.775583 3.35211 0 0 0
 41 2 1 -1.75479 0.454501 4.70671 0 0 0
 42 2 1 -0.571245 0.910622 5.9807 0 0 0
 43 2 1 0.582837 0.22465 7.26727 0 0 0
 44 2 1 0.728254 -1.1166 8.5744 0 0 0
 45 2 1 -0.301544 -1.99966 9.81911 0 0 0
 46 2 1 -1.63262 -1.62136 11.104 0 0 0
 47 2 1 -2.11329 -0.400217 12.3756 0 0 0
 48 2 1 -1.36899 0.707861 13.6375 0 0 0
 49 2 1 -0.0373416 0.759603 14.962 0 0 0
 50 2 1 0.845563 -0.357383 16.2206 0 0 0
 51 2 1 0.489507 -1.63292 17.5219 0 0 0
 52 2 1 -0.797516 -2.10059 18.765 0 0 0
 53 2 1 -1.88172 -1.34752 20.0108 0 0 0
 54 2 1 -1.90283 -0.0424195 21.3225 0 0 0
 55 2 1 -0.879995 0.71349 22.6716 0 0 0
 56 2 1 0.408856 0.243581 23.9665 0 0 0
 57 2 1 0.784549 -1.08978 25.248 0 0 0
 58 2 1 -0.0703199 -2.17682 26.516 0 0 0
 59 2 1 -1.46111 -2.11211 27.8593 0 0 0
 60 2 1 -2.16168 -0.9556 29.1458 0 0 0
 61 2 1 -1.66917 0.268534 30.4611 0 0 0
 62 2 1 -0.349666 0.420374 31.771 0 0 0
 63 2 1 0.484561 -0.566888 33.1295 0 0 0
 64 2 1 0.13511 -1.85259 34.381 0 0 0
 65 2 1 -1.14793 -2.31503 35.6855 0 0 0
 66 2 1 -2.16214 -1.51831 37.0115 0 0 0
 67 2 1 -2.05843 -0.180043 38.3115 0 0 0
 68 2 1 -0.796183 0.497861 39.593 0 0 0
 69 2 1 0.282544 0.012834 41.0494 0 0 0
 70 2 2 1.6895 -0.9516 41.6799 0 0 0
 71 2 2 2.1205 -1.602 42.9777 0 0 0
 72 2 2 1.7859 -0.6745 44.2171 0 0 0

Bonds
 
       1         1         1       2
       2         1         2       3
       3         1         3       4
       4         1         4       5
       5         1         5       6
       6         1         6       7
       7         1         7       8
       8         1         8       9
       9         1         9      10
      10         1        10      11
      11         1        11      12
      12         1        12      13
      13         1        13      14
      14         1        14      15
      15         1        15      16
      16         1        16      17
      17         1        17      18
      18         1        18      19
      19         1        19      20
      20         1        20      21
      21         1        21      22
      22         1        22      23
      23         1        23      24
      24         1        24      25
      25         1        25      26
      26         1        26      27
      27         1        27      28
      28         1        28      29
      29         1        29      30
      30         1        30      31
      31         1        31      32
      32         1        32      33
      33         1        33      34
      34         1        34      35
      35         1        35      36
      36         1        37      38
      37         1        38      39
      38         1        39      40
      39         1        40      41
      40         1        41      42
      41         1        42      43
      42         1        43      44
      43         1        44      45
      44         1        45      46
      45         1        46      47
      46         1        47      48
      47         1        48      49
      48         1        49      50
      49         1        50      51
      50         1        51      52
      51         1        52      53
      52         1        53      54
      53         1        54      55
      54         1        55      56
      55         1        56      57
      56         1        57      58
      57         1        58      59
      58         1        59      60
      59         1        60      61
      60         1        61      62
      61         1        62      63
      62         1        63      64
      63         1        64      65
      64         1        65      66
      65         1        66      67
      66         1        67      68
      67         1        68      69
      68         1        69      70
      69         1        70      71
      70         1        71      72
     

 
Angles
 
           1           1           1           2           3
           2           1           2           3           4
           3           1           3           4           5
           4           1           4           5           6
           5           1           5           6           7
           6           1           6           7           8
           7           1           7           8           9
           8           1           8           9          10
           9           1           9          10          11
          10           1          10          11          12
          11           1          11          12          13
          12           1          12          13          14
          13           1          13          14          15
          14           1          14          15          16
          15           1          15          16          17
          16           1          16          17          18
          17           1          17          18          19
          18           1          18          19          20
          19           1          19          20          21
          20           1          20          21          22
          21           1          21          22          23
          22           1          22          23          24
          23           1          23          24          25
          24           1          24          25          26
          25           1          25          26          27
          26           1          26          27          28
          27           1          27          28          29
          28           1          28          29          30
          29           1          29          30          31
          30           1          30          31          32
          31           1          31          32          33
          32           1          32          33          34
          33           1          33          34          35
          34           1          34          35          36
          35           1          37          38          39
          36           1          38          39          40
          37           1          39          40          41
          38           1          40          41          42
          39           1          41          42          43
          40           1          42          43          44
          41           1          43          44          45
          42           1          44          45          46
          43           1          45          46          47
          44           1          46          47          48
          45           1          47          48          49
          46           1          48          49          50
          47           1          49          50          51
          48           1          50          51          52
          49           1          51          52          53
          50           1          52          53          54
          51           1          53          54          55
          52           1          54          55          56
          53           1          55          56          57
          54           1          56          57          58
          55           1          57          58          59
          56           1          58          59          60
          57           1          59          60          61
          58           1          60          61          62
          59           1          61          62          63
          60           1          62          63          64
          61           1          63          64          65
          62           1          64          65          66
          63           1          65          66          67
          64           1          66          67          68
          65           1          67          68          69
          66           1          68          69          70
          67           1          69          70          71
          68           1          70          71          72

 
Dihedrals
 
           1           1           1           2           3           4
           2           1           2           3           4           5
           3           1           3           4           5           6
           4           1           4           5           6           7
           5           1           5           6           7           8
           6           1           6           7           8           9
           7           1           7           8           9          10
           8           1           8           9          10          11
           9           1           9          10          11          12
          10           1          10          11          12          13
          11           1          11          12          13          14
          12           1          12          13          14          15
          13           1          13          14          15          16
          14           1          14          15          16          17
          15           1          15          16          17          18
          16           1          16          17          18          19
          17           1          17          18          19          20
          18           1          18          19          20          21
          19           1          19          20          21          22
          20           1          20          21          22          23
          21           1          21          22          23          24
          22           1          22          23          24          25
          23           1          23          24          25          26
          24           1          24          25          26          27
          25           1          25          26          27          28
          26           1          26          27          28          29
          27           1          27          28          29          30
          28           1          28          29          30          31
          29           1          29          30          31          32
          30           1          30          31          32          33
          31           1          31          32          33          34
          32           1          32          33          34          35
          33           1          33          34          35          36
          34           1          37          38          39          40
          35           1          38          39          40          41
          36           1          39          40          41          42
          37           1          40          41          42          43
          38           1          41          42          43          44
          39           1          42          43          44          45
          40           1          43          44          45          46
          41           1          44          45          46          47
          42           1          45          46          47          48
          43           1          46          47          48          49
          44           1          47          48          49          50
          45           1          48          49          50          51
          46           1          49          50          51          52
          47           1          50          51          52          53
          48           1          51          52          53          54
          49           1          52          53          54          55
          50           1          53          54          55          56
          51           1          54          55          56          57
          52           1          55          56          57          58
          53           1          56          57          58          59
          54           1          57          58          59          60
          55           1          58          59          60          61
          56           1          59          60          61          62
          57           1          60          61          62          63
          58           1          61          62          63          64
          59           1          62          63          64          65
          60           1          63          64          65          66
          61           1          64          65          66          67
          62           1          65          66          67          68
          63           1          66          67          68          69
          64           1          67          68          69          70
          65           1          68          69          70          71
          66           1          69          70          71          72
