LAMMPS UA chain data file
 
         196  atoms
         194  bonds
         192  angles
         190  dihedrals
           0  impropers
 
           3  atom types
           1  bond types
           1  angle types
           1  dihedral types
           0  improper types
 
    -400.000000     400.000000 xlo xhi
    -400.000000     400.000000 ylo yhi
    -0.050000      124.000000 zlo zhi
 
Masses
 
  1   14.00
  2   14.00
  3   14.00
 
Atoms

 1 1 3 -3.1107 -0.241272 -0.0123858 0 0 0
 2 1 3 -3.21315 0.54054 1.32567 0 0 0
 3 1 3 -2.97671 -0.297788 2.58325 0 0 0
 4 1 1 -2.92841 0.616011 3.86526 0 0 0
 5 1 1 -2.60254 0.0234418 5.24238 0 0 0
 6 1 1 -3.00361 1.0473 6.34673 0 0 0
 7 1 1 -3.1564 0.552608 7.78282 0 0 0
 8 1 1 -2.71436 1.50322 8.93531 0 0 0
 9 1 1 -2.50654 0.753471 10.2859 0 0 0
 10 1 1 -2.43359 1.70702 11.5442 0 0 0
 11 1 1 -1.93749 1.04551 12.8229 0 0 0
 12 1 1 -2.16542 1.79492 14.1549 0 0 0
 13 1 1 -1.83541 0.979498 15.4127 0 0 0
 14 1 1 -2.57022 1.21533 16.7399 0 0 0
 15 1 1 -2.05968 0.317636 17.8788 0 0 0
 16 1 1 -2.36389 0.824327 19.3102 0 0 0
 17 1 1 -1.79945 0.00371905 20.536 0 0 0
 18 1 1 -1.42374 0.711562 21.8522 0 0 0
 19 1 1 -1.30801 -0.202374 23.1049 0 0 0
 20 1 1 -1.74381 0.557606 24.3318 0 0 0
 21 1 1 -1.87911 -0.371304 25.6295 0 0 0
 22 1 1 -2.12975 0.395267 26.904 0 0 0
 23 1 1 -1.87671 -0.332747 28.2131 0 0 0
 24 1 1 -2.09115 0.608395 29.3879 0 0 0
 25 1 1 -2.52272 -0.135197 30.641 0 0 0
 26 1 1 -3.00394 0.836792 31.7316 0 0 0
 27 1 1 -3.41521 0.141415 33.0991 0 0 0
 28 1 1 -3.64572 1.10019 34.2663 0 0 0
 29 1 1 -3.55982 0.357104 35.6734 0 0 0
 30 1 1 -3.48535 1.21163 36.9657 0 0 0
 31 1 1 -3.99504 0.331065 38.0852 0 0 0
 32 1 1 -3.62862 1.01214 39.4161 0 0 0
 33 1 1 -4.09939 0.272879 40.646 0 0 0
 34 1 1 -3.75616 0.98787 41.9912 0 0 0
 35 1 1 -3.71722 0.0415468 43.2026 0 0 0
 36 1 1 -3.05945 0.63906 44.4548 0 0 0
 37 1 1 -3.15744 -0.180569 45.7746 0 0 0
 38 1 1 -3.4545 0.614545 47.0775 0 0 0
 39 1 1 -3.67696 -0.345964 48.2132 0 0 0
 40 1 1 -3.95256 0.311854 49.5755 0 0 0
 41 1 1 -4.08497 -0.506269 50.8244 0 0 0
 42 1 1 -4.2145 0.25998 52.1751 0 0 0
 43 1 1 -4.64046 -0.468575 53.4501 0 0 0
 44 1 1 -4.64524 0.460327 54.6736 0 0 0
 45 1 1 -5.02812 -0.224224 55.9918 0 0 0
 46 1 1 -4.56634 0.661151 57.2039 0 0 0
 47 1 1 -4.95391 -0.0481702 58.5952 0 0 0
 48 1 1 -4.32929 0.640952 59.8146 0 0 0
 49 1 1 -4.61446 -0.103622 61.152 0 0 0
 50 1 1 -3.69891 0.553293 62.2281 0 0 0
 51 1 1 -3.99576 0.153242 63.7017 0 0 0
 52 1 1 -3.29642 0.92727 64.8507 0 0 0
 53 1 1 -3.78316 0.557365 66.2427 0 0 0
 54 1 1 -3.23012 1.47325 67.3042 0 0 0
 55 1 1 -3.59396 1.19791 68.7387 0 0 0
 56 1 1 -2.69613 1.69514 69.9489 0 0 0
 57 1 1 -3.2237 1.42617 71.3696 0 0 0
 58 1 1 -2.35514 2.19198 72.3998 0 0 0
 59 1 1 -2.5321 1.87614 73.8822 0 0 0
 60 1 1 -1.70018 2.53098 75.0245 0 0 0
 61 1 1 -1.89756 1.70889 76.3096 0 0 0
 62 1 1 -1.4781 2.37314 77.6299 0 0 0
 63 1 1 -1.91289 1.69906 78.975 0 0 0
 64 1 1 -1.21336 2.01645 80.3069 0 0 0
 65 1 1 -1.75436 1.1803 81.4595 0 0 0
 66 1 1 -1.58615 1.7831 82.8714 0 0 0
 67 1 1 -2.02959 0.98262 84.0548 0 0 0
 68 1 1 -1.86551 1.57371 85.4276 0 0 0
 69 1 1 -2.0059 0.528771 86.5087 0 0 0
 70 1 1 -1.65482 1.1422 87.8692 0 0 0
 71 1 1 -1.53906 0.296322 89.1354 0 0 0
 72 1 1 -0.9718 1.02363 90.3707 0 0 0
 73 1 1 -1.17068 0.248313 91.7348 0 0 0
 74 1 1 -0.977476 1.06072 93.0497 0 0 0
 75 1 1 -1.35498 0.439591 94.392 0 0 0
 76 1 1 -1.3187 1.56199 95.5068 0 0 0
 77 1 1 -1.47627 0.939112 96.9064 0 0 0
 78 1 1 -1.0989 1.91627 98.0743 0 0 0
 79 1 1 -0.94649 1.1065 99.3194 0 0 0
 80 1 1 -0.612258 1.92496 100.589 0 0 0
 81 1 1 -0.661159 1.00743 101.893 0 0 0
 82 1 1 -0.164241 1.77221 103.122 0 0 0
 83 1 1 -0.221664 0.841835 104.312 0 0 0
 84 1 1 0.0977515 1.55991 105.605 0 0 0
 85 1 1 0.137087 0.632956 106.85 0 0 0
 86 1 1 0.0571093 1.27405 108.251 0 0 0
 87 1 1 0.191604 0.478895 109.594 0 0 0
 88 1 1 0.241838 1.19538 110.936 0 0 0
 89 1 1 -0.124467 0.295105 112.15 0 0 0
 90 1 1 -0.120324 1.15893 113.456 0 0 0
 91 1 1 -0.636517 0.433109 114.746 0 0 0
 92 1 1 -0.545938 1.15613 116.095 0 0 0
 93 1 1 -0.904727 0.192855 117.259 0 0 0
 94 1 1 -0.973282 0.84891 118.649 0 0 0
 95 1 1 -1.36253 -0.16889 119.768 0 0 0
 96 1 2 -1.4379 0.4302 121.245 0 0 0
 97 1 2 -1.3844 -0.678 122.297 0 0 0
 98 1 2 -1.7147 -0.2091 123.87 0 0 0
 99 2 3 1.7893 -0.240928 -0.0123858 0 0 0
 100 2 3 2.45975 0.105872 1.34115 0 0 0
 101 2 3 1.62637 -0.0252946 2.59383 0 0 0
 102 2 1 2.13472 0.898392 3.756 0 0 0
 103 2 1 1.72567 0.448764 5.13589 0 0 0
 104 2 1 1.91497 1.43608 6.32372 0 0 0
 105 2 1 1.69273 0.779437 7.72108 0 0 0
 106 2 1 2.01063 1.68198 8.88228 0 0 0
 107 2 1 2.29434 1.08813 10.325 0 0 0
 108 2 1 2.85067 2.1062 11.3369 0 0 0
 109 2 1 2.98205 1.3569 12.7065 0 0 0
 110 2 1 3.09135 2.3548 13.8259 0 0 0
 111 2 1 2.95019 1.83644 15.2857 0 0 0
 112 2 1 2.87225 2.89416 16.408 0 0 0
 113 2 1 2.73761 2.31894 17.8528 0 0 0
 114 2 1 2.28881 3.34555 18.944 0 0 0
 115 2 1 2.6323 2.81644 20.3639 0 0 0
 116 2 1 1.76327 3.38421 21.5328 0 0 0
 117 2 1 2.40528 2.74862 22.8407 0 0 0
 118 2 1 1.68195 3.00021 24.1887 0 0 0
 119 2 1 2.30559 2.03889 25.236 0 0 0
 120 2 1 1.648 2.3755 26.6179 0 0 0
 121 2 1 2.21083 1.48506 27.7709 0 0 0
 122 2 1 1.7369 2.09813 29.0901 0 0 0
 123 2 1 2.17568 1.4299 30.4048 0 0 0
 124 2 1 1.43883 1.98426 31.6428 0 0 0
 125 2 1 1.6054 1.06497 32.906 0 0 0
 126 2 1 1.13245 1.82399 34.1758 0 0 0
 127 2 1 1.91913 1.52028 35.4658 0 0 0
 128 2 1 1.62634 2.35113 36.8005 0 0 0
 129 2 1 2.24071 2.0489 38.1515 0 0 0
 130 2 1 1.80898 2.9042 39.373 0 0 0
 131 2 1 1.97382 2.08738 40.7237 0 0 0
 132 2 1 1.58968 2.8441 42.0268 0 0 0
 133 2 1 1.65373 2.04102 43.312 0 0 0
 134 2 1 1.0786 2.64279 44.575 0 0 0
 135 2 1 1.01965 1.66837 45.7115 0 0 0
 136 2 1 0.653312 2.28592 47.0827 0 0 0
 137 2 1 0.473458 1.16713 48.1381 0 0 0
 138 2 1 0.159116 1.71861 49.5306 0 0 0
 139 2 1 0.242946 0.53455 50.5468 0 0 0
 140 2 1 0.014401 0.914041 51.9656 0 0 0
 141 2 1 0.297857 -0.123381 53.0246 0 0 0
 142 2 1 0.270687 0.618631 54.4103 0 0 0
 143 2 1 0.160266 -0.240078 55.7322 0 0 0
 144 2 1 0.313437 0.571434 57.0713 0 0 0
 145 2 1 -0.118862 -0.175522 58.337 0 0 0
 146 2 1 0.159018 0.638355 59.5941 0 0 0
 147 2 1 -0.145078 -0.140482 60.9147 0 0 0
 148 2 1 0.258496 0.641151 62.2053 0 0 0
 149 2 1 0.0356657 -0.143381 63.4889 0 0 0
 150 2 1 0.538723 0.716269 64.6745 0 0 0
 151 2 1 0.477248 0.124055 66.0558 0 0 0
 152 2 1 1.10555 1.03989 67.1173 0 0 0
 153 2 1 1.00634 0.496755 68.6128 0 0 0
 154 2 1 1.69588 1.38652 69.6651 0 0 0
 155 2 1 1.7716 0.704855 71.0736 0 0 0
 156 2 1 1.94945 1.59633 72.3693 0 0 0
 157 2 1 2.06286 0.728792 73.6638 0 0 0
 158 2 1 2.21127 1.46666 75.0105 0 0 0
 159 2 1 2.21528 0.594165 76.2414 0 0 0
 160 2 1 2.71228 1.24653 77.5721 0 0 0
 161 2 1 2.85787 0.335138 78.7428 0 0 0
 162 2 1 3.19853 1.17519 80.053 0 0 0
 163 2 1 2.82866 0.418303 81.3744 0 0 0
 164 2 1 3.26594 1.14504 82.6487 0 0 0
 165 2 1 2.80579 0.295313 83.8522 0 0 0
 166 2 1 2.85625 1.00321 85.2612 0 0 0
 167 2 1 2.89259 -0.0104215 86.3297 0 0 0
 168 2 1 3.07653 0.681388 87.752 0 0 0
 169 2 1 2.6973 -0.189443 88.9874 0 0 0
 170 2 1 2.65619 0.687268 90.2821 0 0 0
 171 2 1 2.6461 -0.0757569 91.5787 0 0 0
 172 2 1 3.00812 0.756316 92.8336 0 0 0
 173 2 1 2.86245 0.181365 94.2635 0 0 0
 174 2 1 3.33271 0.97087 95.532 0 0 0
 175 2 1 2.94546 0.495671 96.9266 0 0 0
 176 2 1 3.7185 1.24767 98.1169 0 0 0
 177 2 1 3.46672 0.6705 99.4996 0 0 0
 178 2 1 3.99873 1.51994 100.649 0 0 0
 179 2 1 3.69748 0.642187 101.884 0 0 0
 180 2 1 4.09139 1.31172 103.212 0 0 0
 181 2 1 4.04579 0.431914 104.418 0 0 0
 182 2 1 4.3863 1.30831 105.621 0 0 0
 183 2 1 4.13855 0.616658 106.972 0 0 0
 184 2 1 4.46127 1.4162 108.298 0 0 0
 185 2 1 4.31794 0.588692 109.58 0 0 0
 186 2 1 4.20613 1.36702 110.9 0 0 0
 187 2 1 4.29673 0.436334 112.15 0 0 0
 188 2 1 4.2011 1.15293 113.537 0 0 0
 189 2 1 3.74265 0.361027 114.751 0 0 0
 190 2 1 3.81695 0.917712 116.147 0 0 0
 191 2 1 3.83852 0.0160098 117.35 0 0 0
 192 2 1 3.64796 0.828092 118.612 0 0 0
 193 2 1 3.46967 -0.12888 119.769 0 0 0
 194 2 2 3.4621 0.4302 121.245 0 0 0
 195 2 2 3.5156 -0.678 122.297 0 0 0
 196 2 2 3.1853 -0.2091 123.87 0 0 0

Bonds
 
       1         1         1       2
       2         1         2       3
       3         1         3       4
       4         1         4       5
       5         1         5       6
       6         1         6       7
       7         1         7       8
       8         1         8       9
       9         1         9      10
      10         1        10      11
      11         1        11      12
      12         1        12      13
      13         1        13      14
      14         1        14      15
      15         1        15      16
      16         1        16      17
      17         1        17      18
      18         1        18      19
      19         1        19      20
      20         1        20      21
      21         1        21      22
      22         1        22      23
      23         1        23      24
      24         1        24      25
      25         1        25      26
      26         1        26      27
      27         1        27      28
      28         1        28      29
      29         1        29      30
      30         1        30      31
      31         1        31      32
      32         1        32      33
      33         1        33      34
      34         1        34      35
      35         1        35      36
      36         1        36      37
      37         1        37      38
      38         1        38      39
      39         1        39      40
      40         1        40      41
      41         1        41      42
      42         1        42      43
      43         1        43      44
      44         1        44      45
      45         1        45      46
      46         1        46      47
      47         1        47      48
      48         1        48      49
      49         1        49      50
      50         1        50      51
      51         1        51      52
      52         1        52      53
      53         1        53      54
      54         1        54      55
      55         1        55      56
      56         1        56      57
      57         1        57      58
      58         1        58      59
      59         1        59      60
      60         1        60      61
      61         1        61      62
      62         1        62      63
      63         1        63      64
      64         1        64      65
      65         1        65      66
      66         1        66      67
      67         1        67      68
      68         1        68      69
      69         1        69      70
      70         1        70      71
      71         1        71      72
      72         1        72      73
      73         1        73      74
      74         1        74      75
      75         1        75      76
      76         1        76      77
      77         1        77      78
      78         1        78      79
      79         1        79      80
      80         1        80      81
      81         1        81      82
      82         1        82      83
      83         1        83      84
      84         1        84      85
      85         1        85      86
      86         1        86      87
      87         1        87      88
      88         1        88      89
      89         1        89      90
      90         1        90      91
      91         1        91      92
      92         1        92      93
      93         1        93      94
      94         1        94      95
      95         1        95      96
      96         1        96      97
      97         1        97      98
      98         1        99     100
      99         1       100     101
     100         1       101     102
     101         1       102     103
     102         1       103     104
     103         1       104     105
     104         1       105     106
     105         1       106     107
     106         1       107     108
     107         1       108     109
     108         1       109     110
     109         1       110     111
     110         1       111     112
     111         1       112     113
     112         1       113     114
     113         1       114     115
     114         1       115     116
     115         1       116     117
     116         1       117     118
     117         1       118     119
     118         1       119     120
     119         1       120     121
     120         1       121     122
     121         1       122     123
     122         1       123     124
     123         1       124     125
     124         1       125     126
     125         1       126     127
     126         1       127     128
     127         1       128     129
     128         1       129     130
     129         1       130     131
     130         1       131     132
     131         1       132     133
     132         1       133     134
     133         1       134     135
     134         1       135     136
     135         1       136     137
     136         1       137     138
     137         1       138     139
     138         1       139     140
     139         1       140     141
     140         1       141     142
     141         1       142     143
     142         1       143     144
     143         1       144     145
     144         1       145     146
     145         1       146     147
     146         1       147     148
     147         1       148     149
     148         1       149     150
     149         1       150     151
     150         1       151     152
     151         1       152     153
     152         1       153     154
     153         1       154     155
     154         1       155     156
     155         1       156     157
     156         1       157     158
     157         1       158     159
     158         1       159     160
     159         1       160     161
     160         1       161     162
     161         1       162     163
     162         1       163     164
     163         1       164     165
     164         1       165     166
     165         1       166     167
     166         1       167     168
     167         1       168     169
     168         1       169     170
     169         1       170     171
     170         1       171     172
     171         1       172     173
     172         1       173     174
     173         1       174     175
     174         1       175     176
     175         1       176     177
     176         1       177     178
     177         1       178     179
     178         1       179     180
     179         1       180     181
     180         1       181     182
     181         1       182     183
     182         1       183     184
     183         1       184     185
     184         1       185     186
     185         1       186     187
     186         1       187     188
     187         1       188     189
     188         1       189     190
     189         1       190     191
     190         1       191     192
     191         1       192     193
     192         1       193     194
     193         1       194     195
     194         1       195     196
 
Angles
 
           1           1           1           2           3
           2           1           2           3           4
           3           1           3           4           5
           4           1           4           5           6
           5           1           5           6           7
           6           1           6           7           8
           7           1           7           8           9
           8           1           8           9          10
           9           1           9          10          11
          10           1          10          11          12
          11           1          11          12          13
          12           1          12          13          14
          13           1          13          14          15
          14           1          14          15          16
          15           1          15          16          17
          16           1          16          17          18
          17           1          17          18          19
          18           1          18          19          20
          19           1          19          20          21
          20           1          20          21          22
          21           1          21          22          23
          22           1          22          23          24
          23           1          23          24          25
          24           1          24          25          26
          25           1          25          26          27
          26           1          26          27          28
          27           1          27          28          29
          28           1          28          29          30
          29           1          29          30          31
          30           1          30          31          32
          31           1          31          32          33
          32           1          32          33          34
          33           1          33          34          35
          34           1          34          35          36
          35           1          35          36          37
          36           1          36          37          38
          37           1          37          38          39
          38           1          38          39          40
          39           1          39          40          41
          40           1          40          41          42
          41           1          41          42          43
          42           1          42          43          44
          43           1          43          44          45
          44           1          44          45          46
          45           1          45          46          47
          46           1          46          47          48
          47           1          47          48          49
          48           1          48          49          50
          49           1          49          50          51
          50           1          50          51          52
          51           1          51          52          53
          52           1          52          53          54
          53           1          53          54          55
          54           1          54          55          56
          55           1          55          56          57
          56           1          56          57          58
          57           1          57          58          59
          58           1          58          59          60
          59           1          59          60          61
          60           1          60          61          62
          61           1          61          62          63
          62           1          62          63          64
          63           1          63          64          65
          64           1          64          65          66
          65           1          65          66          67
          66           1          66          67          68
          67           1          67          68          69
          68           1          68          69          70
          69           1          69          70          71
          70           1          70          71          72
          71           1          71          72          73
          72           1          72          73          74
          73           1          73          74          75
          74           1          74          75          76
          75           1          75          76          77
          76           1          76          77          78
          77           1          77          78          79
          78           1          78          79          80
          79           1          79          80          81
          80           1          80          81          82
          81           1          81          82          83
          82           1          82          83          84
          83           1          83          84          85
          84           1          84          85          86
          85           1          85          86          87
          86           1          86          87          88
          87           1          87          88          89
          88           1          88          89          90
          89           1          89          90          91
          90           1          90          91          92
          91           1          91          92          93
          92           1          92          93          94
          93           1          93          94          95
          94           1          94          95          96
          95           1          95          96          97
          96           1          96          97          98
          97           1          99         100         101
          98           1         100         101         102
          99           1         101         102         103
         100           1         102         103         104
         101           1         103         104         105
         102           1         104         105         106
         103           1         105         106         107
         104           1         106         107         108
         105           1         107         108         109
         106           1         108         109         110
         107           1         109         110         111
         108           1         110         111         112
         109           1         111         112         113
         110           1         112         113         114
         111           1         113         114         115
         112           1         114         115         116
         113           1         115         116         117
         114           1         116         117         118
         115           1         117         118         119
         116           1         118         119         120
         117           1         119         120         121
         118           1         120         121         122
         119           1         121         122         123
         120           1         122         123         124
         121           1         123         124         125
         122           1         124         125         126
         123           1         125         126         127
         124           1         126         127         128
         125           1         127         128         129
         126           1         128         129         130
         127           1         129         130         131
         128           1         130         131         132
         129           1         131         132         133
         130           1         132         133         134
         131           1         133         134         135
         132           1         134         135         136
         133           1         135         136         137
         134           1         136         137         138
         135           1         137         138         139
         136           1         138         139         140
         137           1         139         140         141
         138           1         140         141         142
         139           1         141         142         143
         140           1         142         143         144
         141           1         143         144         145
         142           1         144         145         146
         143           1         145         146         147
         144           1         146         147         148
         145           1         147         148         149
         146           1         148         149         150
         147           1         149         150         151
         148           1         150         151         152
         149           1         151         152         153
         150           1         152         153         154
         151           1         153         154         155
         152           1         154         155         156
         153           1         155         156         157
         154           1         156         157         158
         155           1         157         158         159
         156           1         158         159         160
         157           1         159         160         161
         158           1         160         161         162
         159           1         161         162         163
         160           1         162         163         164
         161           1         163         164         165
         162           1         164         165         166
         163           1         165         166         167
         164           1         166         167         168
         165           1         167         168         169
         166           1         168         169         170
         167           1         169         170         171
         168           1         170         171         172
         169           1         171         172         173
         170           1         172         173         174
         171           1         173         174         175
         172           1         174         175         176
         173           1         175         176         177
         174           1         176         177         178
         175           1         177         178         179
         176           1         178         179         180
         177           1         179         180         181
         178           1         180         181         182
         179           1         181         182         183
         180           1         182         183         184
         181           1         183         184         185
         182           1         184         185         186
         183           1         185         186         187
         184           1         186         187         188
         185           1         187         188         189
         186           1         188         189         190
         187           1         189         190         191
         188           1         190         191         192
         189           1         191         192         193
         190           1         192         193         194
         191           1         193         194         195
         192           1         194         195         196
 
Dihedrals
 
           1           1           1           2           3           4
           2           1           2           3           4           5
           3           1           3           4           5           6
           4           1           4           5           6           7
           5           1           5           6           7           8
           6           1           6           7           8           9
           7           1           7           8           9          10
           8           1           8           9          10          11
           9           1           9          10          11          12
          10           1          10          11          12          13
          11           1          11          12          13          14
          12           1          12          13          14          15
          13           1          13          14          15          16
          14           1          14          15          16          17
          15           1          15          16          17          18
          16           1          16          17          18          19
          17           1          17          18          19          20
          18           1          18          19          20          21
          19           1          19          20          21          22
          20           1          20          21          22          23
          21           1          21          22          23          24
          22           1          22          23          24          25
          23           1          23          24          25          26
          24           1          24          25          26          27
          25           1          25          26          27          28
          26           1          26          27          28          29
          27           1          27          28          29          30
          28           1          28          29          30          31
          29           1          29          30          31          32
          30           1          30          31          32          33
          31           1          31          32          33          34
          32           1          32          33          34          35
          33           1          33          34          35          36
          34           1          34          35          36          37
          35           1          35          36          37          38
          36           1          36          37          38          39
          37           1          37          38          39          40
          38           1          38          39          40          41
          39           1          39          40          41          42