LAMMPS (16 Mar 2018)
# 1. INITIALIZATION
#allows pair, bond, bending and dihedral interactions
atom_style molecular

  # periodic (video game) boundaries in all cartesian directions
boundary p p s

  # uses real units (instead of units based on pair potential parameters).  List of units used in manual
units real

###########
# 2. ATOM DEFINITION
##########

   ##
   # Read in data from starting configuration file
   ##

#read_data chainconfig.dat

 #use to restart
read_restart RESTART
  orthogonal box = (-400 -400 -0.0371672) to (400 400 123.895)
  2 by 2 by 1 MPI processor grid
  196 atoms
  194 bonds
  192 angles
  190 dihedrals
  2 = max # of 1-2 neighbors
  2 = max # of 1-3 neighbors
  4 = max # of 1-4 neighbors
  6 = max # of special neighbors

   ##
   # Specify the nature of the bond interactions
   ##


bond_style harmonic
bond_coeff 1 450 1.54

special_bonds lj 0.0 0.0 0.0 angle no dihedral no

angle_style harmonic
angle_coeff 1 62.1  114.00

dihedral_style opls
dihedral_coeff * 1.4110 -0.2708 3.143 0.0

mass * 14.0

pair_style lj/cut 14.0
pair_coeff 1 1 0.0912 3.95 14.0
#pair_modify tail yes

group twistables type 3
6 atoms in group twistables
group freeze type 2
6 atoms in group freeze
fix startend freeze setforce 0.0 0.0 0.0
fix startend0 twistables setforce 0.0 0.0 0.0

################
# 3.  Simulation Settings
###############

neighbor        2.0 bin
neigh_modify    every 1 delay 0 check yes



# Define some variables
variable Lx          equal xhi-xlo   # Ang
variable Ly          equal yhi-ylo   # Ang
variable Lz          equal zhi-zlo   # Ang

variable dz          equal ${Lz}/30  # Ang
variable dz          equal 123.931948666893/30  

variable zzlo        equal zlo+0.05  # Ang
variable zzhi        equal zhi  # Ang
variable vol         equal ${Lx}*${Ly}*${Lz}  # Ang^3
variable vol         equal 800*${Ly}*${Lz}  
variable vol         equal 800*800*${Lz}  
variable vol         equal 800*800*123.931948666893  
variable TEMP        equal 300.00 # K
variable TThi        equal 320.00 # K
variable TTlo        equal 280.00 # K
variable dt          equal 1.25 # fs

timestep     ${dt}
timestep     1.25

variable zlo1      equal ${zzlo}+2.7
variable zlo1      equal 0.0128327665533126+2.7
variable zlo2      equal ${zzlo}+8.4
variable zlo2      equal 0.0128327665533126+8.4
variable zhi1      equal ${zzlo}+115.5
variable zhi1      equal 0.0128327665533126+115.5
variable zhi2      equal ${zzlo}+121
variable zhi2      equal 0.0128327665533126+121

# heat layers

region          hot  block  INF INF INF INF ${zlo1} ${zlo2}
region          hot  block  INF INF INF INF 2.71283276655331 ${zlo2}
region          hot  block  INF INF INF INF 2.71283276655331 8.41283276655331
region          cold block INF INF INF INF ${zhi1} ${zhi2}
region          cold block INF INF INF INF 115.512832766553 ${zhi2}
region          cold block INF INF INF INF 115.512832766553 121.012832766553
compute         Thot all temp/region hot
compute         Tcold all temp/region cold


# 1st equilibration run
fix             1 all nvt temp ${TEMP} ${TEMP} 50
fix             1 all nvt temp 300 ${TEMP} 50
fix             1 all nvt temp 300 300 50
thermo          100
run             8000
Unused restart file peratom fix info:
  fix style: STORE, fix ID: layers_COMPUTE_STORE
Neighbor list info ...
  update every 1 steps, delay 0 steps, check yes
  max neighbors/atom: 2000, page size: 100000
  master list distance cutoff = 16
  ghost atom cutoff = 16
  binsize = 8, bins = 100 100 16
  1 neighbor lists, perpetual/occasional/extra = 1 0 0
  (1) pair lj/cut, perpetual
      attributes: half, newton on
      pair build: half/bin/newton
      stencil: half/bin/3d/newton
      bin: standard
Per MPI rank memory allocation (min/avg/max) = 9.022 | 9.23 | 9.854 Mbytes
Step Temp E_pair E_mol TotEng Press Volume 
134452000    298.60387    -55.06289    175.32624    293.82923  -0.51796341     79316447 
134452100    325.02246   -56.779864    189.35178    321.49381  0.086642701     79316447 
134452200     302.2358   -52.329688    177.83833    301.18561  -0.51034772     79316447 
134452300    312.66659   -55.921652    180.39122    306.20951 0.0032803924     79316447 
134452400    290.30991   -50.222239    191.42604    309.94875   -0.4785203     79316447 
134452500    284.83141   -50.526353    188.90209    303.93626  -0.40916046     79316447 
134452600    318.97122   -50.009994    202.92033     338.3149  -0.26893797     79316447 
134452700    302.41321   -50.645067    186.98345    312.11847  -0.71988567     79316447 
134452800    318.54402   -52.019905    176.62467    309.76102  0.047207449     79316447 
134452900    280.31449   -55.896368    204.84355    311.88221  -0.67407111     79316447 
134453000    314.79234   -57.404227    169.35372    294.92505  -0.11230412     79316447 
134453100    308.15338   -54.922447    198.56123    322.75538  -0.39489665     79316447 
134453200    268.99801   -56.438354    189.47429    289.39317  -0.46803457     79316447 
134453300    313.15963   -54.684585    192.27794    319.61989  -0.17036006     79316447 
134453400    300.26814   -53.802103    179.32765    300.05879  -0.60904104     79316447 
134453500    259.98511    -53.00607    184.53621    282.64856   -0.0295332     79316447 
134453600    311.14633   -54.641457    192.49392    318.70874  -0.52634353     79316447 
134453700    299.66083   -57.026983    171.26001    288.41327  0.023572263     79316447 
134453800    303.14037   -55.625668    194.66245    315.23954   -0.4202163     79316447 
134453900    303.42115   -56.487031    170.15152    290.03045  -0.18182052     79316447 
134454000    297.50282   -55.181192    180.44701     298.1917  -0.20039774     79316447 
134454100    300.14984   -53.321511    197.47917    318.62214  -0.48587807     79316447 
134454200    268.12678    -52.89967    184.57446    287.52561 -0.039484289     79316447 
134454300    337.60312   -52.894815    165.76443    309.10412  -0.45238853     79316447 
134454400    306.12214   -56.329719    193.88773    315.49395 -0.055133836     79316447 
134454500    302.03901   -52.476784    198.00705    321.09285  -0.55893201     79316447 
134454600    285.39748   -55.002608    167.10045     277.9874  -0.18511073     79316447 
134454700     289.5557   -54.385364    181.25877    295.17996  -0.34759723     79316447 
134454800    317.82407   -52.408774    178.44139    310.77039   -0.4590615     79316447 
134454900    304.98681   -51.044229     196.1322    322.36398  -0.23878751     79316447 
134455000    299.65252    -51.59398    182.92312    305.50455  -0.68805866     79316447 
134455100    320.99409   -50.826955    198.97742    334.73084   -0.1182696     79316447 
134455200    289.58436   -52.038591    190.25105    306.53567   -0.5804968     79316447 
134455300    314.92092   -54.275921    185.30826    314.08263  -0.13469197     79316447 
134455400    291.97991   -54.384012    172.45836    287.78999  -0.22555418     79316447 
134455500    310.41795   -53.857676    185.06945    311.64469  -0.44773287     79316447 
134455600    279.56429    -53.71946    164.76791    273.54742 -0.045697175     79316447 
134455700    302.63511   -52.717104    189.61615    312.80811  -0.54350423     79316447 
134455800    303.45592   -51.671956    193.01023    317.72444 -0.027043399     79316447 
134455900    297.00574   -51.536292    176.24373    297.34439  -0.39917095     79316447 
134456000    298.34115   -50.980338    199.55771    321.99054  -0.12678848     79316447 
134456100    310.71834   -51.298366    195.38745    324.69659  -0.29231143     79316447 
134456200    270.73651   -51.098977     197.7566    304.02538  -0.38211024     79316447 
134456300    296.85485   -52.182911     191.6433    312.00963  -0.15041178     79316447 
134456400    301.38123   -51.480373    185.31132    309.01119  -0.42843788     79316447 
134456500     301.8746    -51.27195    187.55215    311.74721 -0.055319497     79316447 
134456600    283.38325   -52.987756    203.80992    315.54093  -0.48872204     79316447 
134456700    288.54795     -52.7868    188.53562    303.46961 -0.083748048     79316447 
134456800    305.07141   -50.844962    187.04588    313.52611  -0.22665594     79316447 
134456900    337.37593   -53.522763    190.15169    332.73137  -0.32936131     79316447 
134457000    299.04322   -53.041197     182.9916    303.77166 0.0065199012     79316447 
134457100    304.76111   -54.890306    184.68884    306.94336  -0.37312573     79316447 
134457200    299.63417   -52.027013    201.90404    324.04177 -0.017702058     79316447 
134457300    315.84313   -53.705647    186.50524    316.38593  -0.30701417     79316447 
134457400    288.49286   -53.722143    215.83374    329.80037  -0.19493101     79316447 
134457500    277.37125   -53.686024    189.03955    296.57778  -0.33697543     79316447 
134457600    341.31719    -52.47056    188.62173     334.5445   -0.3890511     79316447 
134457700    299.19626   -55.476813    188.41865    306.85205 -0.082206996     79316447 
134457800    305.02769   -51.335785    189.45556    315.41955  -0.44962593     79316447 
134457900    328.85493   -54.440476    202.02713     338.7362 -0.076656756     79316447 
134458000    291.93639   -52.349406    181.46208    298.80302  -0.38450584     79316447 
134458100    317.84727   -53.103651    188.17748    319.82509  -0.23436087     79316447 
134458200    310.13565   -54.333167    199.02475     324.9604  -0.32025249     79316447 
134458300    307.95712   -56.978792    181.80636     303.8301  -0.35469116     79316447 
134458400    277.97421   -56.432576    174.85223    279.99438  -0.18231603     79316447 
134458500    304.99868   -56.569355    180.38067    301.09422  -0.33762958     79316447 
134458600    312.32772   -57.083084    179.36163    303.82152  -0.11158135     79316447 
134458700    286.62295   -53.876862    174.54001    287.26502  -0.23101854     79316447 
134458800     310.9071   -53.270848    194.40545    321.85183  -0.22561677     79316447 
134458900    278.28794   -52.670716    188.77296    297.85932   -0.2522962     79316447 
134459000    315.67333   -54.917207    178.86838    307.43881  -0.32918674     79316447 
134459100      285.115    -53.70867    197.99933    310.01602  -0.11440165     79316447 
134459200    302.78609   -56.054097     184.5787    304.52143   -0.3404416     79316447 
134459300    256.91935   -56.430922    195.04119    287.94668  -0.22765874     79316447 
134459400    320.27799   -53.552039    191.89797    324.51007  -0.18961697     79316447 
134459500    285.47256   -54.623726    194.49735    305.80682  -0.44550932     79316447 
134459600    277.94234   -55.587101    183.65639    289.62549  -0.10917246     79316447 
134459700    329.27993   -54.143788    198.64015    335.89294    -0.437061     79316447 
134459800    251.68375   -54.050007    208.80486    301.04803  -0.34598414     79316447 
134459900    288.78218   -53.536986    193.25305    307.57301  -0.38796653     79316447 
134460000    294.72078   -53.854798    193.87907    311.33308  -0.40506509     79316447 
Loop time of 0.75493 on 4 procs for 8000 steps with 196 atoms

Performance: 1144.477 ns/day, 0.021 hours/ns, 10597.006 timesteps/s
100.0% CPU use with 4 MPI tasks x no OpenMP threads

MPI task timing breakdown:
Section |  min time  |  avg time  |  max time  |%varavg| %total
---------------------------------------------------------------
Pair    | 0.10616    | 0.12382    | 0.14009    |   3.4 | 16.40
Bond    | 0.16794    | 0.23569    | 0.3142     |  10.7 | 31.22
Neigh   | 0.009932   | 0.010053   | 0.010169   |   0.1 |  1.33
Comm    | 0.25043    | 0.33918    | 0.41926    |  10.3 | 44.93
Output  | 0.00091767 | 0.00097138 | 0.0011268  |   0.0 |  0.13
Modify  | 0.025982   | 0.030447   | 0.034196   |   1.8 |  4.03
Other   |            | 0.01477    |            |       |  1.96

Nlocal:    49 ave 80 max 18 min
Histogram: 1 0 0 0 1 1 0 0 0 1
Nghost:    147 ave 178 max 116 min
Histogram: 1 0 0 0 1 1 0 0 0 1
Neighs:    955 ave 1870 max 326 min
Histogram: 1 0 0 2 0 0 0 0 0 1

Total # of neighbors = 3820
Ave neighs/atom = 19.4898
Ave special neighs/atom = 5.87755
Neighbor list builds = 95
Dangerous builds = 0
velocity        all scale ${TEMP}
velocity        all scale 300
unfix           1

# Second Equilibration
fix             1 all nve
fix             hot all langevin ${TThi} ${TThi}  50.0 599804  tally yes
fix             hot all langevin 320 ${TThi}  50.0 599804  tally yes
fix             hot all langevin 320 320  50.0 599804  tally yes
fix             cold all langevin ${TTlo} ${TTlo} 50.0 27859 tally yes
fix             cold all langevin 280 ${TTlo} 50.0 27859 tally yes
fix             cold all langevin 280 280 50.0 27859 tally yes
fix_modify      hot temp Thot
fix_modify      cold temp Tcold


variable        tdiff equal c_Thot-c_Tcold
thermo_style    custom step c_Thot c_Tcold f_hot f_cold v_tdiff
thermo          4000
run             1600000
Per MPI rank memory allocation (min/avg/max) = 10.15 | 10.49 | 10.61 Mbytes
Step c_Thot c_Tcold f_hot f_cold v_tdiff 
134460000    597.62427    345.58944           -0           -0    252.03483 
134464000    403.42827    431.65164   -11.657199    19.240077   -28.223372 
134468000    224.51107    276.68199     5.562171     19.14705   -52.170917 
134472000     349.5262    293.18034   -36.506989    72.513696    56.345863 
134476000    605.74005    385.84742   -54.740833    81.893248    219.89264 
134480000    187.53626    378.81188   -66.599266    105.01104   -191.27561 
134484000     367.7817    300.58789   -102.90671    128.37441    67.193817 
134488000    471.30965    315.83186   -115.81458    154.87211    155.47778 
134492000    408.33969     521.5435   -138.79798    163.59426   -113.20381 
134496000     608.1391    345.84584   -141.19173    179.02538    262.29326 
134500000    343.34255    291.48154   -141.01531     170.3923    51.861012 
134504000    388.72532    206.75235   -138.78692    202.69252    181.97297 
134508000    269.25471    347.22928   -158.17776    202.58481    -77.97457 
134512000    544.73244     458.5828   -190.66575    224.36028    86.149637 
134516000    505.11651    273.38376   -209.98085    248.41266    231.73276 
134520000     437.3435    482.03875   -237.18626    277.03025   -44.695246 
134524000     237.7873    347.63308     -286.246    319.21408   -109.84578 
134528000    204.42987     254.1694   -324.24139    312.47838   -49.739533 
134532000    313.95391     476.2134   -322.26438    332.06687   -162.25949 
134536000    438.54107    386.55081   -329.73814    355.15633    51.990259 
134540000    421.20711    292.57717   -338.43452     375.7477    128.62994 
134544000    333.17197     366.9002   -333.30689    378.61131   -33.728228 
134548000    196.69703    284.83425   -332.57526    362.19918   -88.137225 
134552000    294.87265    362.91856   -348.75204    382.90504   -68.045903 
134556000    458.86027    237.00409   -370.95351    383.01063    221.85618 
134560000    596.32297    264.25996   -382.74912     388.3362    332.06301 
134564000    350.43641    286.14555   -371.01225    407.61465    64.290857 
134568000    638.87222    222.75584   -430.69167    460.45071    416.11638 
134572000    247.63561    260.53546   -443.95205    487.68572   -12.899847 
134576000    321.89327    371.79451   -469.60791    497.52247    -49.90124 
134580000    352.04156    432.29932   -471.76318    510.13608   -80.257759 
134584000    296.57253    282.97706   -491.40293    534.77788    13.595467 
134588000    422.78519    384.17633   -530.63389     567.4448    38.608864 
134592000    458.03749    553.78972   -566.59879    576.23588   -95.752239 
134596000    338.82056    325.05086     -555.093    610.29758    13.769704 
134600000    380.94056    393.23395   -582.75858    619.30805   -12.293393 
134604000    486.06275    308.22736   -604.25935    647.89473    177.83539 
134608000    389.53625    250.04324   -635.80893    666.13103      139.493 
134612000    300.67616    422.70777   -654.90029    689.05378   -122.03162 
134616000    250.89345    339.05637   -672.68273    705.63722   -88.162923 
134620000    319.08481    528.81778   -701.81637    708.39036   -209.73296 
134624000    236.94653     365.4927   -714.33292    708.91907   -128.54617 
134628000    483.81287    370.27248   -692.80126    712.47753    113.54039 
134632000    395.32327    311.75604   -732.23293    761.07034    83.567231 
134636000    417.97488    401.75137   -738.66401    765.58272    16.223506 
134640000    331.02506    301.40871   -755.25018    773.80235    29.616347 
134644000    503.91734    181.54887    -763.0692    807.21814    322.36847 
134648000    372.88182    617.46761   -786.59385    834.76992   -244.58579 
134652000    264.89207    380.11442   -818.07015    854.81077   -115.22236 
134656000    485.20444    390.55406   -814.79251    874.08737    94.650381 
134660000    279.88535     283.1232   -845.36069    886.66954   -3.2378556 
134664000    336.17289    304.67024   -865.94009    888.92536    31.502651 
134668000    290.65102    467.64536   -869.01782    900.65588   -176.99434 
134672000    344.51351    334.12223   -887.00048     919.1034    10.391281 
134676000    368.02389    448.40731   -915.37349    914.74688   -80.383413 
134680000    261.67827    268.84847   -914.52256    951.77953   -7.1701945 
134684000    298.92168    316.96483   -956.33404    979.69609    -18.04315 
134688000    292.21327    312.82064   -962.91087    988.50028   -20.607371 
134692000    353.52241    269.62866   -991.83643    1001.6391    83.893748 
134696000    483.24393    343.54512   -1021.9978    1016.2654     139.6988 
134700000     629.6141    251.97227   -1030.1479    1050.3756    377.64183 
134704000     527.2762    278.91919   -1037.5088    1066.7182    248.35702 
134708000    163.94831      300.134   -1062.8305    1097.7698   -136.18569 
134712000    318.43215    287.77509   -1106.7442    1131.2515    30.657059 
134716000      233.313    162.77804   -1130.9842    1140.3138     70.53496 
134720000    292.98205    213.45187     -1141.14    1163.2495    79.530186 
134724000    311.93864    170.52423   -1142.3964    1166.6191    141.41441 
134728000    249.78114    444.38612   -1148.6822    1213.1041   -194.60498 
134732000    401.42714    280.10179   -1194.6077    1229.9931    121.32534 
134736000    562.31102    302.26102   -1226.9555    1257.0107       260.05 
134740000    405.97907     270.2257   -1254.6051    1268.8617    135.75337 
134744000    280.10168    235.87219   -1268.3318    1309.1223    44.229487 
134748000    346.75447    287.88329   -1291.3413    1314.4674    58.871186 
134752000    540.44724    267.14416   -1275.9869      1303.88    273.30308 
134756000    402.29809    281.96751   -1303.4107    1341.2384    120.33058 
134760000    427.29494    259.42852   -1342.3942    1369.0491    167.86642 
134764000    412.32881    447.00769   -1359.4559    1410.6246   -34.678881 
134768000     453.9269    302.59263   -1368.2098    1410.3049    151.33427 
134772000    427.49417     242.5661    -1371.316    1407.5569    184.92807 
134776000    280.71481    368.59589   -1369.7886    1395.9986   -87.881073 
134780000    329.17951    473.71233   -1390.0697      1392.12   -144.53283 
134784000    382.45189     204.9683   -1419.6296    1426.5984    177.48359 
134788000    280.95325    216.18201   -1430.2231    1453.0597    64.771238 
134792000    302.74108    395.03526   -1430.9299    1466.9404   -92.294186 
134796000    557.27985    265.48061   -1465.7952    1476.7829    291.79924 
134800000    338.97863    292.66799   -1471.1436     1496.445    46.310646 
134804000     298.2824    214.81943   -1506.4309    1514.2266    83.462967 
134808000    194.70491    248.31278   -1494.9625    1549.7925    -53.60787 
134812000    267.65639    313.98085   -1544.3943    1549.6097    -46.32446 
134816000    342.67383    347.98033   -1539.2921    1568.4778   -5.3064992 
134820000     158.3834     444.5797   -1545.4662     1587.709    -286.1963 
134824000    611.02871    360.87076   -1585.2052    1600.3399    250.15795 
134828000    401.07634    476.59565   -1593.6565    1624.3678   -75.519307 
134832000    348.75849    262.41372   -1597.4421    1631.9465    86.344775 
134836000    374.36082    207.60253    -1617.575    1657.9321    166.75829 
134840000    389.65425    286.71852   -1627.7742     1669.178    102.93573 
134844000    322.77335      559.292   -1650.2504    1680.0992   -236.51865 
134848000    320.23708    444.69983   -1633.8444    1683.0892   -124.46276 
134852000    394.05167     198.0981   -1659.8518    1689.1942    195.95357 
134856000     248.1246    293.73708   -1674.3822    1703.2424   -45.612481 
134860000    439.90886    240.80884    -1680.209    1732.2264    199.10002 
134864000    364.95586    264.06418   -1704.5314    1725.0791    100.89168 
134868000     321.5617    233.34817   -1738.6172    1746.7568    88.213534 
134872000    319.57979     458.1761   -1753.1828    1772.2759   -138.59631 
134876000    497.10223    345.03941   -1778.2172     1805.127    152.06282 
134880000     298.7293    272.29129   -1806.6642    1844.1909    26.438012 
134884000    313.30437    243.41865   -1814.6211    1859.4824     69.88572 
134888000    416.52062    304.12299   -1852.5932    1873.5579    112.39764 
134892000    290.78908    409.48387   -1870.8436    1905.4403    -118.6948 
134896000    429.36941     363.2064    -1896.303       1908.5    66.163017 
134900000    450.07317    274.23006   -1923.7716    1952.6262    175.84312 
134904000    337.01073    234.29184   -1956.6332    1973.8539    102.71889 
134908000    428.58465    246.92067    -1958.125    1994.3108    181.66398 
134912000     349.3961    272.55451   -1981.8999    2007.4767    76.841589 
134916000    286.29612    393.49456   -1996.3844    2031.0664   -107.19844 
134920000    658.34872    424.31999    -1988.335    2028.1347    234.02873 
134924000    519.23237    555.15759   -2015.3849    2057.6116   -35.925214 
134928000    227.51033    355.82718   -2041.2962    2085.9917   -128.31685 
134932000    308.35436    238.83988   -2056.0864     2095.852    69.514481 
134936000    338.67355    273.95974   -2097.0424    2105.7991    64.713814 
134940000    244.79343    303.39926   -2105.3014    2126.0223   -58.605831 
134944000     275.3429    416.68849   -2137.1259    2148.6752   -141.34558 
134948000    295.67486       306.89   -2143.3693    2164.8179   -11.215147 
134952000    370.52579    465.54275   -2140.8209    2169.0122   -95.016959 
134956000    373.14168    438.26937   -2137.0784    2184.0983   -65.127692 
134960000    384.56364    168.08673   -2170.1086     2199.265    216.47692 
134964000    684.37506    315.03712   -2168.2458    2201.2723    369.33794 
134968000    281.14534    291.51497   -2158.7898    2200.8296   -10.369633 
134972000    359.30653    248.66435   -2199.4926    2219.8837    110.64218 
134976000    435.45714    341.16887   -2218.4413    2232.2134    94.288265 
134980000    225.58195    417.93868   -2255.9611     2288.778   -192.35673 
134984000    240.22735    540.07908   -2272.4254    2307.1635   -299.85174 
134988000    332.20285    245.90574   -2266.5314    2302.2919    86.297108 
134992000    201.16267    443.35016   -2276.7454    2328.4197   -242.18749 
134996000    341.99707    230.44792   -2283.9627    2331.5681    111.54916 
135000000    538.88112    328.93117   -2315.1171    2357.4974    209.94995 
135004000    468.55871    465.57131   -2342.2147    2364.1417    2.9873935 
135008000    389.81749    322.58776   -2348.5818     2376.663    67.229722 
135012000    353.62053    348.38502   -2347.8849     2379.907    5.2355086 
135016000    177.83621    399.77455   -2364.3935    2408.3063   -221.93834 
135020000    327.79159    287.92599   -2399.8168    2443.3346    39.865594 
135024000    397.07829    300.60373   -2412.0836     2436.975     96.47456 
135028000    544.73219    311.58262   -2418.1782    2460.6075    233.14956 
135032000    262.44292    303.74618   -2452.8213    2482.1421   -41.303255 
135036000    245.00212    254.50676   -2468.0248    2504.9963   -9.5046383 
135040000    381.72757    218.41664   -2487.2921    2527.9188    163.31093 
135044000    285.83091    231.03985   -2505.1073    2533.8918    54.791052 
135048000    302.36407    268.78384   -2540.9899    2566.2205    33.580228 
135052000    394.09088     235.5703   -2549.7199    2586.5897    158.52058 
135056000    378.95447     310.8635   -2569.6399    2617.4628    68.090972 
135060000    318.74664    485.98551    -2577.282    2627.3143   -167.23887 
135064000    270.39425    207.24832   -2611.4012     2637.508    63.145935 
135068000    434.50007    281.38595   -2631.2323    2664.4687    153.11412 
135072000    195.47518    366.64163   -2636.1588    2668.2221   -171.16645 
135076000    273.62131    318.98481   -2674.4987    2705.6247     -45.3635 
135080000    269.59716    369.41983   -2700.4859    2743.2388   -99.822673 
135084000    451.76502    303.49397   -2728.3971    2752.1181    148.27105 
135088000    398.22727    444.28726   -2733.2434    2765.7223   -46.059985 
135092000    341.52805    590.85063   -2770.4741    2795.7605   -249.32258 
135096000    377.60365    241.73261   -2816.9214    2835.3614    135.87103 
135100000    451.34842    373.33696   -2839.4459    2844.5985    78.011455 
135104000    319.13213    330.17092   -2838.5781     2868.846   -11.038791 
135108000    127.94094    299.94539   -2875.8396      2905.37   -172.00446 
135112000    437.34089    342.31717   -2865.6114    2908.4012    95.023712 
135116000    242.44975    470.54516   -2897.8506    2930.9495   -228.09541 
135120000    472.99203    188.65319   -2920.1606    2967.4105    284.33884 
135124000    262.99351    400.45318    -2958.318    2982.2423   -137.45967 
135128000     251.9251     272.1033   -2987.2484    2979.7059   -20.178204 
135132000    363.30246    415.30014   -2988.0426      3015.36   -51.997686 
135136000    481.29011    383.26089   -3003.8577    3025.3759    98.029221 
135140000     234.0096    246.34895   -3031.2774    3050.8749   -12.339344 
135144000    309.17774    452.89119   -3050.7713    3062.0688   -143.71345 
135148000    318.24362    289.64837   -3058.1095    3073.9956    28.595258 
135152000    487.91737     154.4163   -3072.7787    3093.9378    333.50108 
135156000     340.4432    304.95319   -3067.7767    3119.9021    35.490014 
135160000    380.77354     431.9113   -3070.5686    3089.5959   -51.137765 
135164000    503.65756    228.13947   -3087.9369    3117.2923    275.51809 
135168000    201.46331    194.63777   -3082.2474     3137.227    6.8255381 
135172000    426.80901    292.59761     -3113.84    3141.5718     134.2114 
135176000    246.05929    476.59593   -3109.3018    3128.9259   -230.53663 
135180000    385.14835    406.95363   -3137.0964    3148.7432   -21.805275 
135184000    392.10595    272.14171    -3142.023    3183.5045    119.96424 
135188000    338.40019    209.85148   -3156.7692    3202.7731    128.54871 
135192000    211.42751    292.72097   -3188.6183     3212.634   -81.293462 
135196000     314.7571    362.65811   -3230.5266     3233.998   -47.901003 
135200000    435.63974    345.18484   -3233.7111    3259.6373    90.454899 
135204000    419.71542    328.71498   -3240.8303    3261.7691    91.000442 
135208000    643.14964    232.39832   -3263.7719    3269.9364    410.75132 
135212000    191.17246    317.62229   -3251.4921    3265.4503   -126.44983 
135216000    225.66113    295.04965   -3250.4725    3271.3102   -69.388525 
135220000    282.49863    275.92445   -3243.7984    3302.6269    6.5741777 
135224000    291.09794    368.73861   -3279.0868    3322.1151   -77.640671 
135228000    559.39624    470.82775   -3295.5873    3310.7973    88.568488 
135232000    459.06079    394.42526   -3274.2265    3306.9812    64.635529 
135236000    498.93918    244.60661   -3300.7545    3322.1876    254.33256 
135240000    320.16989    603.28745   -3319.7387    3323.1483   -283.11756 
135244000    500.92241    451.97901   -3335.7214    3344.9363    48.943394 
135248000     330.5232    346.22783   -3347.8872    3364.0235   -15.704638 
135252000    504.87391    427.64081   -3377.9829    3380.0577      77.2331 
135256000     177.5203    274.82332   -3384.2992     3426.087   -97.303022 
135260000    422.22985    355.16496   -3398.7648    3432.8464    67.064891 
135264000    340.34938    385.82471   -3451.6658    3462.5759   -45.475333 
135268000    361.31848    217.49197    -3485.102    3527.4602    143.82651 
135272000    438.51283    260.56641   -3525.8865     3557.891    177.94642 
135276000    407.59422    366.91198   -3570.0031    3600.3089    40.682244 
135280000    373.83436    350.41988   -3588.3644    3617.1835    23.414484 
135284000    598.50132    293.09279   -3611.9867    3639.9274    305.40854 
135288000    546.18746    151.68265   -3626.9838    3658.5693    394.50482 
135292000    321.97408    443.20123   -3645.0774    3663.5105   -121.22715 
135296000    619.79096    316.22316   -3702.2316    3727.1499     303.5678 
135300000    452.49175     371.0784   -3730.8832    3761.5503    81.413347 
135304000    503.00668     201.6201   -3741.9678    3764.7867    301.38658 
135308000    245.14539    230.86781   -3742.9792     3777.893    14.277582 
135312000    300.13606    249.78998   -3756.5118    3809.5829    50.346074 
135316000    316.21236    378.26117    -3774.659    3820.5918   -62.048812 
135320000     335.6863    402.99082    -3825.526    3848.1438   -67.304516 
135324000    293.50139    348.45139   -3838.4708    3861.1743   -54.950004 
135328000    364.85772    280.59258   -3856.8794    3892.1069    84.265142 
135332000    413.18772    328.66041   -3876.7276    3902.3951    84.527314 
135336000    413.09959    334.98562   -3908.2959    3936.7589    78.113971 
135340000    317.49236    459.85902   -3934.6941    3966.2619   -142.36666 
135344000    328.13003    285.95117   -3956.7736    3995.2172    42.178854 
135348000    391.02426    329.73425   -4005.7047    4011.1424    61.290005 
135352000    418.47377    405.12913   -4022.9928     4037.838    13.344647 
135356000     571.2351    260.03149   -4065.0133    4072.2796    311.20361 
135360000    405.38084    276.19677   -4097.3348    4084.4372    129.18407 
135364000    507.17103    659.44767   -4113.4124    4116.4101   -152.27663 
135368000    361.10761    362.49111   -4116.9728     4142.808   -1.3834946 
135372000    307.77706    376.06097   -4118.0559    4171.1502   -68.283904 
135376000    482.80059    243.84158   -4164.5656    4195.6258    238.95901 
135380000    339.36578    250.88186   -4188.8343    4207.0054    88.483921 
135384000     349.6252    362.75018   -4194.7655    4229.2065   -13.124985 
135388000    379.55652    232.59997   -4251.7252    4253.6873    146.95655 
135392000     479.2688    396.14547   -4277.5532    4268.1796    83.123328 
135396000    328.03006    323.95956   -4267.6262    4302.8846    4.0705061 
135400000    339.60014    367.55378   -4332.8787    4347.7863   -27.953638 
135404000    383.54895    339.96682   -4350.1851    4398.2075    43.582128 
135408000    264.95441    248.11528   -4390.3616    4406.4732     16.83913 
135412000    316.77433    259.44219   -4374.2497    4427.0592    57.332146 
135416000    284.43144    337.05362   -4378.7448    4423.7436   -52.622182 
135420000    262.84178    312.23066   -4407.5548    4448.2632   -49.388877 
135424000    463.06302    186.86992   -4425.1378    4465.9861     276.1931 
135428000    560.35742    603.91446     -4424.66    4472.7113   -43.557044 
135432000     380.5583    357.50228   -4446.7638    4481.8579    23.056024 
135436000    489.00243    466.29707   -4472.4985    4489.0166    22.705357 
135440000    455.91559    127.34734   -4481.4267     4508.661    328.56825 
135444000    339.36508     267.0948    -4508.591    4533.4646    72.270287 
135448000    300.25586    255.05137   -4512.3669    4553.8484    45.204496 
135452000      231.677    395.36062   -4541.3437    4558.7443   -163.68362 
135456000    317.10084    321.61958   -4563.0857    4587.7688   -4.5187457 
135460000    413.45149    289.92901   -4589.5963     4597.042    123.52248 
135464000    154.27678     220.6957   -4569.1245    4616.8842   -66.418919 
135468000    268.44524     209.4739   -4580.8125    4633.0154     58.97134 
135472000    317.48146    261.44055   -4612.5237     4670.118    56.040903 
135476000    284.91924    297.68626   -4646.3653    4689.5307   -12.767017 
135480000    604.74959    244.39405   -4663.8753    4729.9128    360.35554 
135484000    597.10443    246.90931   -4728.6653    4760.3821    350.19512 
135488000     482.9293    193.31366   -4759.2727    4786.3517    289.61564 
135492000    437.70797     296.1037   -4791.2952    4809.5707    141.60427 
135496000    576.89692    197.35675   -4798.5001    4833.6606    379.54017 
135500000    257.77203    357.38882   -4831.1121    4874.1717   -99.616786 
135504000    291.51729    388.03321   -4850.4301     4890.041   -96.515926 
135508000    325.30556    290.49398   -4869.2983    4900.9711    34.811584 
135512000    485.32882    364.51613   -4882.1423    4922.9188    120.81268 
135516000    492.39208    267.04416   -4923.4027    4924.3859    225.34792 
135520000    328.18563    447.63787   -4937.5707    4963.2262   -119.45225 
135524000     466.6856    305.68715   -4957.6665    4999.3732    160.99844 
135528000    499.77324    154.90876   -4975.2823    5022.8905    344.86448 
135532000    334.40863    398.58945   -5029.0603    5073.4263   -64.180817 
135536000    394.94433    284.94666   -5056.9442    5086.3364    109.99767 
135540000    505.01719     285.9892    -5078.664    5104.8257    219.02799 
135544000    348.19925    403.74655   -5089.1267    5113.3467     -55.5473 
135548000    247.83432    277.92232   -5081.0975     5126.768   -30.088004 
135552000    537.87749    304.59549   -5132.4037    5143.2771      233.282 
135556000    422.63322    324.83663   -5131.9017    5188.5611    97.796596 
135560000    406.69608    438.95115    -5156.983    5173.6839   -32.255064 
135564000    441.07977    233.19218   -5170.5713    5201.5445    207.88759 
135568000    417.44179    268.96493   -5185.9595    5224.7717    148.47685 
135572000    495.24862    308.26306   -5196.2005    5213.9341    186.98555 
135576000    463.80434    418.64133   -5231.4357     5244.571    45.163003 
135580000    367.29565     193.4723   -5244.9724    5268.2822    173.82335 
135584000    414.38539    389.79671    -5257.011    5285.3161    24.588673 
135588000    384.91135    254.82888    -5275.409    5292.1311    130.08247 
135592000    254.51039    287.25517   -5288.6435    5301.9814   -32.744786 
135596000    418.21818    161.94098   -5295.1987    5332.2488     256.2772 
135600000    338.18874    139.86515   -5298.5925    5339.5804    198.32359 
135604000    239.79768    221.12514   -5343.4866    5374.5351    18.672544 
135608000     356.7138    292.81672   -5352.3527    5378.3769     63.89708 
135612000     292.4313    362.34636   -5374.2924    5384.7095   -69.915064 
135616000    449.51956    343.02893   -5390.0638    5422.6387    106.49064 
135620000     380.6231    249.91047   -5396.3088     5432.832    130.71263 
135624000    443.94998     361.4814   -5423.1994    5445.9289    82.468577 
135628000    471.74067    284.51811   -5438.4874    5453.9902    187.22256 
135632000     412.7957    245.11202   -5432.9244    5456.7325    167.68368 
135636000    358.44253    320.28395   -5455.0548    5498.1038    38.158574 
135640000    213.80934    235.80325    -5467.878    5506.6285   -21.993909 
135644000    312.62187    329.02829   -5499.1286    5536.0606    -16.40642 
135648000     245.1691    292.03952   -5549.2397     5554.439   -46.870417 
135652000    315.58127    293.80612   -5547.0353    5566.0212    21.775155 
135656000    293.99094    295.75107    -5543.171    5574.3944   -1.7601348 
135660000    372.10639    239.38005   -5570.4735    5576.3735    132.72633 
135664000    439.30839    266.90678   -5573.8498    5594.1791    172.40161 
135668000    355.05337    289.32397   -5607.9064    5590.0362    65.729398 
135672000    507.24377    424.34769   -5623.0653    5641.1325    82.896078 
135676000    230.09645    262.00169   -5655.3392     5665.309   -31.905241 
135680000    418.87751    485.28755    -5661.221    5692.0913   -66.410042 
135684000    407.26272    462.38376    -5705.171    5723.1977   -55.121039 
135688000    262.53131    354.11142   -5725.4579    5734.2574   -91.580107 
135692000    297.51036    449.10573   -5740.6683    5787.3062   -151.59537 
135696000    436.40508    218.18125   -5774.3806    5797.0535    218.22383 
135700000    201.04748     349.3414   -5772.7658    5805.2046   -148.29392 
135704000    282.58293    308.74553   -5792.1137    5815.0571   -26.162597 
135708000    375.14643    297.74544    -5826.907    5835.9304    77.400984 
135712000     286.4272    458.47999   -5856.5896    5856.1693   -172.05279 
135716000    283.43254    261.43406   -5864.2337     5883.265    21.998474 
135720000     539.1043    229.30689   -5878.0127     5915.117     309.7974 
135724000    430.22816     359.0573   -5906.8037    5948.9539    71.170862 
135728000    411.60987    595.21026   -5938.0159    5961.5058   -183.60039 
135732000     329.7106    352.01518   -5941.6251      5962.14   -22.304574 
135736000    491.28485    312.34036   -5957.7822     5978.136    178.94449 
135740000    373.31908    424.89212   -5958.2297    5974.1529   -51.573044 
135744000    437.66341    304.70922   -5965.9771    5983.6207    132.95419 
135748000    344.26275    209.13534   -5993.7146    6023.0684    135.12742 
135752000     283.1342    355.42981   -6001.7136    6026.0101   -72.295611 
135756000    385.39563    256.16711   -6005.3548    6011.8306    129.22851 
135760000    402.98248    386.88616   -6004.9203    6018.5116    16.096329 
135764000    383.70788    346.55126   -6011.9612    6041.1158    37.156614 
135768000    587.99573    137.63183   -6032.5079    6078.1803     450.3639 
135772000    417.98856    313.62891    -6074.763    6080.5964    104.35965 
135776000    386.53411    544.18639   -6075.6055    6103.9142   -157.65228 
135780000    441.64413    172.10635   -6097.8545    6125.3706    269.53778 
135784000    347.40519    297.80532   -6105.2433    6156.0533    49.599869 
135788000    354.85396    270.08522   -6144.2153    6168.0023    84.768738 
135792000    232.02633    159.69633   -6168.8964    6187.8088    72.329993 
135796000    405.37073    295.63579   -6197.0875    6220.8008    109.73495 
135800000    499.18845    300.91187   -6206.0232    6242.0329    198.27658 
135804000    367.77813    363.86327   -6186.3713    6238.9287    3.9148601 
135808000    329.57187    423.22002   -6229.9521    6258.4888   -93.648147 
135812000    337.39563    441.50821   -6234.1469    6260.7519   -104.11258 
135816000    364.38951    329.14597   -6258.6907    6297.3744    35.243541 
135820000    262.23606    472.96786    -6284.102    6337.8656   -210.73179 
135824000    297.23043    253.00367   -6327.7223    6372.1132    44.226763 
135828000    482.27353    292.29599   -6367.9479    6387.5724    189.97753 
135832000    429.45259    217.19323   -6367.9297    6408.9515    212.25936 
135836000    369.46224    357.21296   -6378.7214     6411.664     12.24928 
135840000    480.94057    409.62563    -6389.904    6422.6371    71.314934 
135844000    252.31638    297.64516   -6412.0715    6430.4185   -45.328774 
135848000     325.1343    301.56625   -6424.1487    6460.7705    23.568053 
135852000    245.27294    246.35105   -6449.0699    6480.8047   -1.0781096 
135856000    293.46673    364.48067   -6486.4447    6520.7091   -71.013935 
135860000    419.91248     510.0028   -6514.6235    6524.6589   -90.090322 
135864000    524.00336    351.77493   -6527.0252    6546.3753    172.22843 
135868000    493.46718    316.91406   -6547.0745    6566.1191    176.55312 
135872000    719.44948    206.21697   -6558.1467    6590.4572    513.23251 
135876000    421.94721    543.36306    -6573.828    6570.3896   -121.41585 
135880000     234.9747    377.24788    -6589.056    6614.4392   -142.27318 
135884000    280.73796    198.75125   -6632.4835    6659.4181    81.986713 
135888000    247.71629    310.42941    -6655.146     6675.446   -62.713115 
135892000    452.01394     390.4751   -6672.2523    6694.9174    61.538839 
135896000    409.72849    409.05721   -6702.9166    6680.8081   0.67128773 
135900000     395.6939    361.96448   -6706.7938      6731.38    33.729425 
135904000     304.0424    148.47077   -6708.9022    6751.0193    155.57163 
135908000    277.04973    277.45861    -6730.648    6759.5708  -0.40888208 
135912000    256.97321    252.31961   -6743.2971    6792.3048    4.6535994 
135916000    265.52473     219.6723   -6747.8815    6789.1148    45.852427 
135920000    366.04888    516.88984   -6763.0317    6783.1542   -150.84097 
135924000    493.48156    168.06459   -6782.4942    6773.0211    325.41697 
135928000    406.64795    391.95973   -6790.7767    6808.1725    14.688226 
135932000    370.40081    285.10312   -6820.8473     6834.474    85.297682 
135936000    515.95372    366.09147   -6808.2687    6852.9761    149.86224 
135940000    338.76689    380.70103   -6836.0416    6857.2325   -41.934139 
135944000    499.32308    251.23463   -6866.4213    6901.2132    248.08845 
135948000    262.94448    148.38006   -6904.3218    6931.5345    114.56442 
135952000    325.41885    342.87465   -6888.1737    6935.0802   -17.455802 
135956000    666.87739    290.12443   -6924.7029    6957.4596    376.75296 
135960000    251.57888    277.91585   -6946.2363    6984.5999   -26.336974 
135964000    462.70697    457.83472   -6969.5913    6989.2396    4.8722456 
135968000    549.32556    226.83526   -7007.2757    7012.7167     322.4903 
135972000    377.59737     360.5857   -7018.4645    7046.2562    17.011678 
135976000    373.49776     276.9987   -7027.9529    7028.4958    96.499052 
135980000    205.60369    312.50561   -7023.7284    7053.3006   -106.90192 
135984000    417.72053    380.62277   -7054.2502    7049.5704     37.09776 
135988000    485.17682    441.82183   -7036.3841     7065.116    43.354992 
135992000    328.26477    412.61351   -7035.0484    7075.6849   -84.348743 
135996000    307.97822       337.07   -7046.7713     7084.975    -29.09178 
136000000    296.86178    564.57129   -7090.9308    7097.0033   -267.70951 
136004000    281.67129    381.00072    -7086.605     7126.818   -99.329433 
136008000    263.55924    215.12895   -7122.4321     7134.611    48.430292 
136012000    395.16433    356.09203   -7135.4342    7165.7973    39.072299 
136016000    383.02397    353.15396   -7177.3517    7194.9456    29.870006 
136020000    376.20691    406.79264   -7187.5447    7221.0259   -30.585729 
136024000    269.21364    347.90859   -7214.4994    7248.3762   -78.694946 
136028000    217.39341    302.08478   -7221.6881      7273.36   -84.691371 
136032000    359.95009    167.93577   -7233.6653    7280.5136    192.01431 
136036000     433.1447    292.72678   -7261.1474    7295.8013    140.41792 
136040000     321.7937    204.12869   -7254.8086    7309.2938      117.665 
136044000    263.53314     252.6571   -7275.7529    7327.8382    10.876039 
136048000     316.6441    274.63777   -7302.2642    7349.9734    42.006327 
136052000    302.47908    264.77737   -7333.5845    7372.8863    37.701709 
136056000    329.98943    389.78027    -7362.457    7412.3737   -59.790848 
136060000    436.49576    356.18566   -7384.3428    7407.1382    80.310105 
Loop time of 174.703 on 4 procs for 1600000 steps with 196 atoms

Performance: 989.105 ns/day, 0.024 hours/ns, 9158.381 timesteps/s
100.0% CPU use with 4 MPI tasks x no OpenMP threads

MPI task timing breakdown:
Section |  min time  |  avg time  |  max time  |%varavg| %total
---------------------------------------------------------------
Pair    | 16.624     | 24.817     | 33.788     | 156.3 | 14.21
Bond    | 26.365     | 47.009     | 71.001     | 279.9 | 26.91
Neigh   | 1.7529     | 1.7728     | 1.7916     |   1.0 |  1.01
Comm    | 37.905     | 66.925     | 94.535     | 314.5 | 38.31
Output  | 0.0063138  | 0.0076088  | 0.0096807  |   1.5 |  0.00
Modify  | 23.812     | 26.019     | 28.297     |  42.6 | 14.89
Other   |            | 8.153      |            |       |  4.67

Nlocal:    49 ave 123 max 6 min
Histogram: 2 0 0 1 0 0 0 0 0 1
Nghost:    147 ave 190 max 73 min
Histogram: 1 0 0 0 0 0 1 0 0 2
Neighs:    956.5 ave 2325 max 59 min
Histogram: 1 1 0 0 1 0 0 0 0 1

Total # of neighbors = 3826
Ave neighs/atom = 19.5204
Ave special neighs/atom = 5.87755
Neighbor list builds = 17241
Dangerous builds = 0
unfix 1


# PRODUCTION

fix             1 all nve
fix             hot all langevin ${TThi} ${TThi}  50.0 52804  tally yes
fix             hot all langevin 320 ${TThi}  50.0 52804  tally yes
fix             hot all langevin 320 320  50.0 52804  tally yes
fix             cold all langevin ${TTlo} ${TTlo} 50.0 297859 tally yes
fix             cold all langevin 280 ${TTlo} 50.0 297859 tally yes
fix             cold all langevin 280 280 50.0 297859 tally yes
fix_modify      hot temp Thot
fix_modify      cold temp Tcold


variable        tdiff equal c_Thot-c_Tcold
thermo          4000

dump gigo all atom 40000 dump.cords_xyz.dat
dump_modify gigo scale no
dump vfgigo all custom 800 dump.velo.dat id vx vy vz fx fy fz

# thermal conductivity calculation
# # reset langevin thermostats to zero energy accumulation
#
compute         ke all ke/atom
variable        temp atom c_ke/1.5/0.0019872

fix             ave all ave/time 100 40 4000 v_tdiff ave running
thermo_style    custom step temp c_Thot c_Tcold f_hot f_cold v_tdiff f_ave

#compute         layers all chunk/atom bin/1d z lower 0.05 units reduced
compute         layers all chunk/atom bin/1d z lower ${dz} units box
compute         layers all chunk/atom bin/1d z lower 4.1310649555631 units box
fix             2 all ave/chunk  100 40 4000 layers v_temp file profile.langevin

#dump mydump2 all xyz 40000 prod-coord.xyz
#dump_modify mydump2 element C S S

run             32000000
Per MPI rank memory allocation (min/avg/max) = 11.99 | 11.99 | 11.99 Mbytes
Step Temp c_Thot c_Tcold f_hot f_cold v_tdiff f_ave 
136060000     295.2117    436.49576    356.18566           -0           -0    80.310105            0 
136064000    300.47705    366.53533    419.22098   -13.051764    9.9100946   -52.685651    14.786445 
136068000    292.00082    516.91111    324.07772   -33.872063    37.400565     192.8334     30.76533 
136072000    291.49167    389.63285     495.7354    -35.50195    31.990583   -106.10255    35.328588 
136076000    279.29396    225.04403    259.42183   -38.305145    53.931956   -34.377808    23.047838 
136080000    304.18144    271.76706    312.51219   -54.907248    59.066851   -40.745125    26.461388 
136084000    282.69556    388.34286    380.44781   -77.557099    82.863856    7.8950423    32.238651 
136088000     283.0462    250.05495    177.22921   -104.48304    105.92419    72.825742    32.402872 
136092000    277.43724    501.94689    288.28367    -123.6263    127.49309    213.66322    34.162957 
136096000    298.44295    434.62707    445.83726    -142.5192    149.89368   -11.210196    32.001269 
136100000    266.05368    296.69511    431.00813   -169.87524     177.6083   -134.31302    34.902033 
136104000    281.81146    314.71183    247.73893   -186.43119    195.83961    66.972897    37.500059 
136108000    283.99242    378.93153    289.32497    -201.7832    209.78834    89.606556      36.5649 
136112000    305.51517    485.26621    379.72967   -223.35784     211.9055    105.53654    38.060213 
136116000    284.42233     320.5204     343.0781    -230.0592    219.51629   -22.557698     42.73357 
136120000    297.87613    382.09746    286.88724   -261.99932    247.55877    95.210215    41.560354 
136124000    289.19781    325.14773    271.78906   -288.61113      287.769    53.358666    40.267573 
136128000    253.22229    302.32753    369.71549   -285.95265    305.99444   -67.387962    39.177541 
136132000    264.30869    324.73245    453.23008   -311.57225    309.17373   -128.49763    39.512223 
136136000    289.28942    477.25274     234.2495   -338.86263    350.23639    243.00324    38.528514 
136140000    276.47999    297.52864    278.42203   -361.58032    369.69713    19.106604    37.547975 
136144000    295.64342    418.42006    273.28608   -400.59743    399.20211    145.13398    38.088001 
136148000    265.61684    253.76987    304.84749    -418.0663    441.82213   -51.077627    37.197142 
136152000    295.59954    276.17608     501.3602   -455.64601    456.94116   -225.18411    37.890052 
136156000    298.95117    275.02065    247.15502   -454.17467    457.78233    27.865636    39.876521 
136160000    261.64887    339.70325    197.70061   -464.73332    475.92511    142.00264     39.26732 
136164000    300.89012    444.89081    347.25732   -496.23561    490.63828    97.633489    38.188425 
136168000    250.21922    396.43208     373.3092   -514.07204    531.75484    23.122881     38.56387 
136172000    277.29137    340.07971    438.17119   -525.55469    543.28238   -98.091488    39.310701 
136176000    289.97647    199.75186    267.95893   -577.28749    576.67617   -68.207066    39.251101 
136180000    288.35505    262.93769    277.84294   -625.79232    615.03924   -14.905249    40.132562 
136184000    329.44863     230.1498    520.87825   -656.65838    623.90411   -290.72845    40.329519 
136188000     259.9455    218.97341    212.77209   -652.18024    665.72547    6.2013203    39.767211 
136192000    273.33227    347.11202    278.78326    -663.0834    665.83686    68.328762    40.395749 
136196000    276.02577    277.56408    334.60912   -659.59066    681.93661   -57.045037    39.992392 
136200000    283.54844    410.76794    288.02431   -668.94484    697.56288    122.74363    41.408025 
136204000    272.08564    235.63019    382.78705    -677.6497    705.32417   -147.15687    41.034323 
136208000    262.75759    285.11137    262.76645   -721.07919    737.38718    22.344921    39.662289 
136212000    300.05948    324.00092    298.45459   -742.01375    740.67576     25.54633    38.674934 
136216000    279.34106    241.69753    182.39834   -751.57676    770.30184    59.299191    39.892301 
136220000    267.31409    313.65621     269.0684   -791.78709    800.42596    44.587807    39.777996 
136224000    270.46953    323.27295    363.90907    -817.6673    827.75439   -40.636117    39.589555 
136228000    274.79919    540.44834    315.00043   -832.03215    835.18077     225.4479    39.148138 
136232000    267.61747    329.77822    414.68092    -842.1664    855.62131   -84.902704    39.129169 
136236000    285.07716     389.2589    324.04534   -846.41707     850.4313    65.213563    39.615915 
136240000    276.21397     340.4778    320.02377   -854.39614    867.33054    20.454024    39.603732 
136244000    252.11006    233.47261    219.43887   -872.09299    904.77621     14.03374    39.264927 
136248000    262.28152    342.63226    222.63175    -901.2139    930.97817    120.00051    38.693067 
136252000     281.9573    391.22897    313.14272   -926.73471    935.99839     78.08625    38.851495 
136256000    243.56527    380.38433    310.06342   -936.85992    955.95504    70.320914     37.97934 
136260000    274.42918    387.99148    171.71766   -970.99266    967.30876    216.27382    38.271329 
136264000    296.62852    389.39715    367.46635   -965.37551    965.68762    21.930807    38.872551 
136268000    289.45427     338.4532     422.0439   -971.55836    980.93426   -83.590705    38.555144 
136272000    295.95444    227.40894    277.30183   -976.09674     966.7166   -49.892889    38.827811 
136276000    293.97487     395.8227     500.2691   -976.32356    980.34258    -104.4464    38.654484 
136280000    302.45896    338.16057    467.84047   -1014.6508    1001.5199    -129.6799    38.781017 
136284000    293.71995    265.02995     277.3857   -999.57037    1001.5855   -12.355743    39.112228 
136288000    290.00508    314.15927    232.81375   -1020.5591     1017.549    81.345521    39.028109 
136292000    315.78126    486.56526     416.5294    -1077.058    1037.4239    70.035866    38.539848 
136296000    291.85156    320.62597    253.52089   -1091.8525    1089.5193     67.10508    38.824682 
136300000    275.74694    276.44464     465.7403   -1116.9334    1124.1379   -189.29566    38.509462 
136304000    261.17426    361.32791    269.78911   -1133.1053    1151.6587    91.538801    39.006831 
136308000    298.46612     404.7214    397.45377   -1167.2534    1169.4301    7.2676355    39.139694 
136312000    296.05463    509.21079    426.51486   -1184.3601    1185.5009    82.695921    38.716607 
136316000     276.6933    566.10555    261.18595   -1218.9854    1207.9856     304.9196     38.66733 
136320000    280.10418    190.14125    290.62019   -1235.6566    1235.3417   -100.47895    38.444537 
136324000    295.04642    349.19596    286.13067   -1267.0288    1271.3375    63.065293    38.145128 
136328000    273.09287    370.26505    320.93615   -1280.9329    1291.6118    49.328902    37.750845 
136332000    249.63398      339.906    356.94718   -1294.7142    1308.7988   -17.041184    38.017141 
136336000    263.28921    270.89513    225.78577   -1311.2124    1312.4857    45.109367    37.383808 
136340000    263.51967     436.7287    198.87407   -1312.4401    1340.5057    237.85463    37.945769 
136344000    277.07381    312.66459    421.57525   -1332.4536    1349.1108   -108.91066    38.069867 
136348000    284.22414    309.28736    576.97272   -1361.5817    1369.2147   -267.68536    38.329451 
136352000    283.47802    354.88612    344.66242   -1394.5141    1407.3744    10.223699    38.201893 
136356000    294.71983    451.41163    300.53431   -1430.9386    1437.1971    150.87732    38.773335 
136360000    286.03249     390.7963    267.53818   -1459.5903    1454.5365    123.25812    39.011168 
136364000    291.27639    216.40157    176.14854   -1507.6981    1504.4062    40.253034    39.274682 
136368000    290.78839    361.34121    311.91326   -1548.7468     1545.753    49.427944    39.186616 
136372000    288.69216    431.65312    413.68268   -1573.0342    1578.4613    17.970437    38.525997 
136376000    267.49929    284.57234    436.96874   -1590.9496    1588.6126    -152.3964    38.430808 
136380000    255.47946    209.09836    439.19589   -1581.6926    1611.0669   -230.09754    38.261536 
136384000    281.56353    399.18238    268.03699   -1600.0187    1617.1392    131.14539     38.34447 
136388000    306.65689    257.49846    353.43987   -1651.5462    1635.4621   -95.941412    38.377315 
136392000    298.08657    385.35838    272.25051   -1681.2328    1669.7725    113.10787    38.385831 
136396000    278.82765    505.08275    284.29979   -1698.1596     1702.346    220.78296    38.619784 
136400000    294.11443    296.47494     318.0798   -1703.1021    1716.9894   -21.604856     38.87265 
136404000    280.84648    610.94161    229.45836   -1722.9836    1729.7509    381.48325    38.767906 
136408000    267.83981    370.81851    340.37265   -1751.3907    1762.9724    30.445861     38.58329 
136412000    300.80417    417.48777    377.74575   -1774.5301    1767.3032     39.74202    38.454046 
136416000    266.50715    244.57515    214.30263   -1793.4572    1801.6821    30.272526     38.43573 
136420000    282.74243    485.71153    415.33952   -1809.9733    1808.6533    70.372005    38.439441 
136424000    291.26561    489.03563    391.50238   -1829.1877     1831.438    97.533244    38.239656 
136428000    293.61341    316.98722    219.87855    -1857.167    1850.6657    97.108667    38.220296 
136432000    279.87915    313.88039    408.64177   -1866.9064    1864.2745   -94.761381     38.46287 
136436000    296.38865    381.30936    314.56545   -1904.8405    1893.4096    66.743911    38.138613 
136440000    288.59894     568.2241    192.92274   -1925.8265    1906.0473    375.30135    38.254858 
136444000    297.46512    305.66534    377.31489   -1933.4009    1911.2226   -71.649555    38.186715 
136448000     316.2876    463.36768    328.44492   -1941.5878    1927.1351    134.92277    37.961484 
136452000    275.71247    304.71959    340.23904   -1968.6716    1970.0733   -35.519452    38.268112 
136456000    252.52773    335.09513     297.5294   -1980.3026    1987.4851    37.565725    38.563804 
136460000    274.55231    299.63287    331.84947   -2001.0559    1993.2972   -32.216606    38.590583 
136464000    281.57065    298.71038     390.7949   -2029.1051    2039.0917   -92.084515    38.338297 
136468000    286.59702    461.34971    297.28809   -2064.1111    2071.6837    164.06162    38.300006 
136472000    287.97675    392.51551    357.37839   -2085.6743    2072.2463    35.137119    38.165212 
136476000    257.86525    441.84413    243.13518   -2077.0631    2091.0503    198.70894    38.492185 
136480000    244.75456    280.14938    423.71286   -2079.5848    2106.7584   -143.56348     38.60769 
136484000     297.0785    282.44128     328.2987   -2111.7465    2119.3442   -45.857417    38.761375 
136488000     273.2409    349.50115    150.21554   -2164.6408    2158.2527    199.28561    38.645531 
136492000     311.0495    273.82676    515.89887    -2189.279    2188.6788   -242.07211    38.636783 
136496000    313.06361    372.56372    294.84611   -2199.1646    2195.4186    77.717607    38.525939 
136500000    302.11606    213.50584     265.8606   -2231.7787    2217.4617   -52.354756    38.527212 
136504000    283.51225    441.17263    424.27354   -2233.1129    2256.1529     16.89909     38.64628 
136508000    264.17265    333.48795    183.85538   -2231.8943    2266.9357    149.63256    38.633164 
136512000    257.15904    270.51465    368.04187    -2266.541    2286.7596   -97.527218     38.85676 
136516000    277.63899    435.41542    326.38668   -2282.4021    2300.9239    109.02874    38.524852 
136520000     272.8014    493.35983    401.66395   -2287.4258    2317.7828     91.69588    38.899038 
136524000    252.58747    449.88202    340.12247   -2323.1084    2349.1285    109.75955    39.065158 
136528000    285.72918    429.66269       321.36   -2348.4073    2347.2483    108.30268    38.758501 
136532000    238.05158    254.43087    193.62761    -2341.959    2377.1767    60.803259    38.934107 
136536000    291.38215    600.86778     276.8423   -2374.7995    2390.4411    324.02548     38.68534 
136540000    270.70874    190.65645    256.29871   -2391.6446    2408.8054   -65.642269    38.577394 
136544000    278.25677    465.54552    319.40351    -2425.166    2425.0406    146.14201     38.62086 
136548000    269.38896    402.43833     347.8927   -2435.5394    2439.2974    54.545625    38.699963 
136552000    318.00439    356.41753    336.37456   -2453.8685    2449.3249    20.042964    38.920303 
136556000    307.83789    247.11223    248.85289   -2471.5039    2454.0473    -1.740668    38.779888 
136560000    305.82425    281.58979    244.75176   -2476.7381    2466.5868    36.838037    38.520989 
136564000    260.91554    336.56513    223.04045   -2455.3354    2497.3545    113.52468    38.542689 
136568000    288.71581    562.45666    319.98697   -2526.0309    2515.7773    242.46969    38.695002 
136572000     296.2213    279.82226    486.73676   -2552.8178    2554.9516    -206.9145    38.488076 
136576000      286.904    299.92909    361.97012   -2540.3954    2557.5978    -62.04103    38.294672 
136580000    281.35285    363.40794    181.46641   -2594.4709    2581.3049    181.94153    37.973671 
136584000    301.36904     417.8623    333.33712   -2596.1501    2595.5284    84.525184    37.922369 
136588000    292.88842    346.16506    430.49161   -2631.4129    2617.0583   -84.326548    37.924903 
136592000    267.62526    181.48459    142.76575   -2645.5078    2656.3558    38.718838       37.758 
136596000    293.14034    318.05955    410.89655    -2679.014    2680.4167   -92.837003    37.571499 
136600000    268.75855    186.60785    414.37295   -2660.8517    2682.0284    -227.7651    37.592256 
136604000     272.5733    284.83142    224.43964   -2683.2884    2683.1305    60.391773    37.462027 
136608000    282.44946    284.91221    207.04196   -2707.5567    2711.7181    77.870253    37.296935 
136612000    273.58917    492.21685    338.04103   -2714.6759    2734.1009    154.17582    37.217395 
136616000    284.76881    451.55868    188.76942   -2739.1675    2749.0438    262.78926    37.483193 
136620000    309.04924    298.99709    363.13213   -2762.8398    2766.2331    -64.13504    37.311186 
136624000    282.67988      195.854    347.56547   -2770.8523    2781.2002   -151.71147     37.19486 
136628000    280.03969    578.97975     241.1507   -2785.3172    2798.3024    337.82904    37.222919 
136632000     268.6314    475.44032    255.68957    -2798.803    2834.9797    219.75075    37.113978 
136636000    289.06248    247.95961    345.88008   -2816.6808    2826.7365   -97.920465    37.038421 
136640000    316.42147    329.88246    633.86774   -2830.1888    2806.6907   -303.98528    36.952535 
136644000     274.3644    301.02059    230.70691   -2831.4103    2856.3034    70.313685     36.86284 
136648000    281.32178    392.02784    316.70894   -2861.0215    2879.9103    75.318894    36.738643 
136652000    309.35282    480.41965    328.19318    -2915.888    2906.4223    152.22647    36.934948 
136656000    286.13584    216.49191    317.90557   -2913.8268    2924.2856   -101.41365    36.864404 
136660000    314.03694    503.68624    418.20309   -2966.8119    2949.8569    85.483155    36.756697 
136664000     304.2168     337.5149     397.9784   -2975.1773    2969.0353   -60.463498      36.8942 
136668000    264.22856    267.49424    343.75764   -2995.8415    3012.9296   -76.263392    36.965654 
136672000    298.19167    347.86932    355.62516   -3046.9004    3030.5682   -7.7558386    36.922927 
136676000    289.39167    351.50327    276.27945   -3048.4739    3060.8418    75.223823    36.837163 
136680000    279.50083    332.13668    274.56771   -3040.8949    3069.9187     57.56897    36.851893 
136684000    280.96144    365.49593    313.08562   -3042.6426    3056.5582    52.410317    36.911839 
136688000    281.08325     658.6103    237.76194   -3066.7658    3069.8535    420.84835    37.081798 
136692000     261.4952    291.41802    271.06397   -3069.4711    3101.1648    20.354051    36.911601 
136696000    251.26098    393.89853    296.32999   -3109.8643    3126.0167    97.568537    37.074891 
136700000    259.17867     397.9139    305.94621    -3150.591     3178.179    91.967692    37.102844 
136704000    301.24416    438.97393     394.6977    -3180.917    3197.5538    44.276223    36.929653 
136708000    294.19821    236.80189    275.70178   -3198.0662    3173.0826   -38.899891    36.919949 
136712000      270.407    370.75382    429.27429   -3187.7544    3194.6324   -58.520466    36.857971 
136716000    277.35496    368.52998    354.05706   -3208.0386     3219.871    14.472921    36.847436 
136720000    284.87482    445.50181    418.34386   -3224.0984    3232.8983    27.157944    36.831821 
136724000    278.36111    393.77273    417.18655   -3229.1949    3236.7188   -23.413812     36.95947 
136728000    286.31853    288.78534    425.80971   -3241.7301    3238.7437   -137.02437    37.085364 
136732000     254.4408    313.97813    259.65163    -3263.179    3288.9136    54.326503     37.14056 
136736000    270.86961    502.19445    426.09925   -3286.0794    3305.7131    76.095197    37.077875 
136740000    269.97323    461.44776    286.46906    -3293.732    3313.3235     174.9787    36.948247 
136744000    261.93127    461.84528    111.87252    -3309.964    3326.8932    349.97276    37.059523 
136748000    299.10834    503.89024    340.17199   -3338.1014    3337.3858    163.71825    36.788523 
136752000    289.42417    272.04758    381.26539   -3370.9636    3386.8557   -109.21781    36.879727 
136756000    289.36692    426.36929    290.71208   -3390.9987    3398.7198    135.65721    36.977833 
136760000    287.21261    418.65432    305.10225   -3427.2378     3421.479    113.55207    37.042284 
136764000    280.74881    439.16301    341.76019   -3443.0796    3446.6845    97.402812     37.36303 
136768000    281.93397    270.34373    338.42843   -3465.0856    3484.0375     -68.0847    37.297999 
136772000    256.01436    144.02057     270.6784   -3450.3218    3482.9763   -126.65783    37.377644 
136776000     260.5668     390.9131    269.75047   -3470.4035     3495.603    121.16264    37.228995 
136780000     257.7173    247.43921    353.06087   -3499.3288    3518.9513   -105.62165    37.152999 
136784000    287.89223    380.37792    184.98177   -3502.9241    3514.3723    195.39615    37.036601 
136788000    284.54377    502.85547      301.778   -3540.0838    3537.8086    201.07747    36.874549 
136792000    294.72598    570.61829    260.73316   -3565.6236    3562.2967    309.88513    36.879216 
136796000    304.65548    275.23787    213.15754   -3544.8719    3556.9189    62.080332    36.888287 
136800000    300.60076    278.99317    227.95702   -3559.2289    3560.1872     51.03615    37.033834 
136804000    285.43945    381.80706    295.86042   -3598.8626    3592.1125    85.946647     36.98121 
136808000    302.77631    388.28452    393.79863   -3624.8522    3617.9129   -5.5141126    36.929695 
136812000    278.24926    437.86535    482.75184   -3659.2173     3675.895   -44.886494    36.934681 
136816000     244.6372    489.82441    239.48932   -3680.6621    3698.3245    250.33509    37.189543 
136820000    272.79744    370.41755    194.58442   -3727.2367    3740.9169    175.83313    37.184679 
136824000    299.62945    428.83201    279.76159   -3774.1414    3767.3859    149.07042    37.129167 
136828000    274.70696    298.01591    454.68044   -3775.4215    3778.5634   -156.66453    37.010298 
136832000     286.4785    346.70969    302.42024   -3792.5118    3791.0819    44.289444    37.159499 
136836000    269.33036    329.24906    408.71554   -3812.1453     3818.888    -79.46648    36.937294 
136840000    264.31502    540.59175    442.53402   -3822.1131    3843.0996    98.057731    37.011366 
136844000     297.1552    564.40889    263.62531   -3837.3955    3847.1653    300.78357       37.015 
136848000    263.87625      340.468    433.60507   -3824.1713    3839.2079   -93.137069    36.742771 
136852000      281.777    226.66388    261.20656   -3858.6992     3857.343   -34.542682    36.681372 
136856000    298.28228    500.18223    357.31349   -3888.9517    3906.0519    142.86874    36.830053 
136860000    284.75914    291.02419    409.78846   -3907.5503    3906.3124   -118.76427    36.930122 
136864000     290.4905    375.76038    427.56894   -3907.7526    3909.5907   -51.808556    36.787144 
136868000    279.05989    473.13577    162.95162   -3932.9719    3938.3244    310.18415    36.872407 
136872000    276.33903    432.13899    184.34744   -3932.9804     3948.505    247.79154    36.745744 
136876000    280.52107    378.88767    298.97814   -3964.8282      3950.64    79.909525    36.827348 
136880000    311.10927    350.61119    147.14255   -3969.0394     3966.133    203.46863    37.094255 
136884000    296.29218    388.62122    501.72001   -3994.1433    3977.0199   -113.09879    37.237633 
136888000    287.58255    473.53823    362.64206   -3997.6639    4006.9341    110.89617    37.475204 
136892000     296.2357    323.35702     435.1045   -4006.6861    4016.9038   -111.74748    37.508978 
136896000    257.34402    301.08941    249.94933   -4031.7662    4058.9464    51.140083    37.371575 
136900000    251.44842    418.78839    186.20638   -4068.8939    4086.9634    232.58201    37.525466 
136904000    301.23849    319.07096    246.72112   -4128.6047    4123.1866    72.349839    37.447323 
136908000    320.24205    614.03297    337.40683   -4175.0607    4158.3955    276.62614    37.494478 
136912000    269.60733    380.37501    256.84603   -4182.4681    4186.4897    123.52898    37.330129 
136916000    245.90037    264.48518    206.84811   -4161.1137    4180.2207    57.637071    37.419381 
136920000    306.07012    527.22081    399.89993   -4181.6879    4169.4668    127.32088    37.272301 
136924000    295.77959    527.02181    480.88357   -4193.8772     4183.218    46.138247    37.368897 
136928000    299.24597    416.19712    254.08231   -4216.4193    4220.0891    162.11482    37.355459 
136932000     280.4245    348.34462     320.2633   -4218.6071    4217.2911    28.081316    37.444138 
136936000    268.33313    477.25489    150.95583    -4215.789    4244.8773    326.29906    37.583093 
136940000    264.07776    401.85694    310.61195   -4250.4714    4269.9683    91.244988    37.585177 
136944000    304.27418    587.28821    347.60469   -4259.9469    4263.3373    239.68351    37.523465 
136948000    280.14282    377.42155    323.59079   -4262.2604    4273.0341    53.830766    37.726419 
136952000    307.41719    342.31681    355.88114   -4293.1819    4292.0997   -13.564329    37.726865 
136956000    276.56613    475.89938    137.33606   -4311.3642    4330.2792    338.56332    37.718483 
136960000    268.36544    321.89885    207.19961   -4313.5895    4321.6782    114.69924    37.673531 
136964000    259.69915    427.52101    303.34632   -4331.3578    4341.9662    124.17469    37.727268 
136968000    266.42143    372.00141    398.68464   -4326.3235    4353.8415   -26.683228    37.715153 
136972000    270.30621    271.47083    250.01022   -4317.2452    4336.7111    21.460602    37.690847 
136976000    296.86367     471.8695    388.25795   -4357.3032    4344.6805    83.611551     37.68416 
136980000    257.68499    556.86013    376.71677   -4350.5686    4378.6145    180.14336    37.494573 
136984000    270.60588    383.44075    364.11877   -4387.2966    4401.1592    19.321983    37.552352 
136988000    302.09846    595.99486    210.66376   -4430.4994    4417.2097    385.33111    37.632927 
136992000    303.08988     229.7255    296.72464   -4414.9156     4420.706   -66.999146    37.607114 
136996000    282.52501    335.47225    302.45799   -4423.6774    4434.3155    33.014258    37.658941 
137000000    285.37789    468.33235    335.61458   -4455.9514    4466.9754    132.71777    37.730454 
137004000    274.68292    439.94481    368.02886   -4479.1585     4477.323    71.915945    37.646625 
137008000     275.8799    311.70594    250.27051   -4468.9615    4489.5893    61.435433    37.524984 
137012000    285.95951    408.90724    239.64825   -4491.5257    4494.6487    169.25899    37.510291 
137016000    304.77149    514.64081    414.91683   -4490.6988    4499.1233    99.723983    37.561446 
137020000    289.69676    192.10334    486.58104   -4482.6612    4502.5741    -294.4777    37.520062 
137024000    267.44877     338.2103    252.35136   -4502.6099    4521.5676    85.858941    37.509322 
137028000    283.04924    268.31214    374.94538   -4518.5244    4524.6586   -106.63324    37.397249 
137032000    306.64403    397.17557    361.68126   -4534.5261    4527.4694     35.49431    37.379521 
137036000    279.94591    428.09545     304.0614   -4552.8109    4562.5437    124.03405    37.491511 
137040000    290.33079    257.57684    363.40527   -4583.7518    4586.7516   -105.82842    37.429915 
137044000    268.55063    358.08138    229.44303   -4577.1122    4593.9286    128.63834    37.341078 
137048000    274.54156    381.35677    288.89255    -4588.508    4600.4907    92.464219     37.30982 
137052000    284.49697    260.74955    284.54109   -4607.7024    4608.6844   -23.791536    37.203664 
137056000    258.91604     237.8317    370.15673   -4603.8347    4633.0541   -132.32503    37.084164 
137060000    274.63194    388.98685    217.86587   -4646.6413    4662.4077    171.12098     37.15938 
137064000    276.99492    474.45273    351.91569    -4671.131    4686.4849    122.53704    37.144335 
137068000    267.08482    264.86889    322.14264   -4686.2287    4718.3662    -57.27375    37.046156 
137072000    263.32963    334.43842    347.35146   -4710.7892    4732.9637   -12.913037    36.980171 
137076000     294.4272    338.06724    389.59074   -4758.4438    4751.0845   -51.523502    37.140985 
137080000    259.48912    278.59628    409.22242    -4780.934    4793.1839   -130.62614    37.108137 
137084000    283.21073    432.87862    321.67457   -4819.9865    4830.6991    111.20404    37.152898 
137088000    294.71853    588.26443    380.06032   -4842.8533    4865.2467     208.2041    37.101518 
137092000    290.68225    142.32338    229.48564   -4862.5318    4868.5715   -87.162263    36.992023 
137096000    294.57253     370.6849    525.75606   -4890.2035    4890.2501   -155.07116    37.068418 
137100000     270.1849    376.32716    510.81845   -4879.6259    4907.6474   -134.49129    37.006801 
137104000    321.21236    437.71317    354.61973   -4919.6707    4907.7997    83.093439    36.995732 
137108000      289.481    399.01562    262.69627   -4929.7467    4941.4193    136.31935    36.921267 
137112000     262.9089     199.9201    253.57659   -4915.6476    4919.5608   -53.656487    36.894816 
137116000    294.44852    270.40637    266.89085   -4923.5555    4932.2646    3.5155278    36.916549 
137120000    293.44216    409.52658    220.43243   -4966.6468    4976.1972    189.09415    36.957921 
137124000    282.92085    319.43355    528.08314   -4977.3528    4991.4285   -208.64958    36.869957 
137128000    244.87102    268.96747    238.54543   -4989.1075    5012.1769    30.422046    36.843584 
137132000    307.80815    389.31547    419.51227   -5056.7421    5046.3179   -30.196807    36.805033 
137136000    289.40861    440.64482    360.60584   -5055.9909    5050.9393    80.038975    36.670567 
137140000    295.50135     464.1728    245.72825   -5077.6534    5079.1422    218.44455    36.651716 
137144000    281.70377    378.28409    309.60977   -5106.2083    5087.6682    68.674325    36.592294 
137148000     312.5499    235.49701    473.10562   -5125.7181    5103.8263    -237.6086     36.53984 
137152000    278.45805    293.72597     208.5934   -5146.1079    5158.5451     85.13257    36.407999 
137156000    276.52082    70.679805    348.20106   -5179.9803    5182.1181   -277.52126    36.386151 
137160000    278.56196    447.52928    580.25217   -5171.1878     5182.772   -132.72289      36.3747 
137164000    286.04792    423.16353    487.10051   -5204.5777    5196.8758    -63.93698    36.255656 
137168000       257.91    294.01769    416.32132   -5183.3063    5213.8669   -122.30362    36.115628 
137172000    279.35478    423.42043    334.38323   -5188.0135    5207.9037    89.037206    36.121281 
137176000    327.46436    567.35709    325.38284   -5218.6847    5203.5476    241.97424    36.232996 
137180000    279.51242     290.5628    162.86026   -5221.6833    5249.8821    127.70253    36.338861 
137184000    275.70548    480.04012    302.20925   -5252.7511    5264.1958    177.83087     36.39885 
137188000    275.25967    408.50861    268.62257   -5301.2958     5293.762    139.88604     36.42428 
137192000    297.19714    530.09413    363.07103    -5328.802    5320.7593     167.0231    36.400462 
137196000    274.66673     351.7612    476.50755   -5353.2442    5356.6947   -124.74635    36.435232 
137200000    301.21681    253.19187    427.54715   -5344.8057    5351.2001   -174.35529    36.596602 
137204000    280.45784    135.98984    337.20995    -5381.196    5378.2229   -201.22011    36.603475 
137208000    265.93893    393.05919    195.88645   -5425.4311    5427.8585    197.17274    36.628123 
137212000     282.0308    284.35266    416.64674   -5456.9645    5457.9168   -132.29408    36.625586 
137216000    297.16675    415.65107    279.31055   -5504.1411    5496.0851    136.34052    36.571384 
137220000    289.76698    290.93744    399.42997   -5483.5739    5498.0718   -108.49253    36.774743 
137224000    278.01037    407.75291    256.56079   -5495.4813    5493.4379    151.19212    36.856372 
137228000    283.99223    244.11268    182.57933   -5488.5507    5492.3102    61.533354    36.903979 
137232000     305.2339    476.80472      430.528   -5515.0695    5509.7402    46.276721    36.931937 
137236000    299.94685    391.45357    253.23487   -5532.4292    5543.2308    138.21871    36.868118 
137240000    286.82693    306.60612    177.24435   -5540.7408    5558.3638    129.36178      36.9141 
137244000     287.7814    390.15609    360.23375   -5558.3775    5554.9686    29.922341    36.952097 
137248000    281.35104    123.38653    407.78308   -5550.5188    5564.8656   -284.39655    36.939161 
137252000      275.605    280.94048    494.99665   -5580.3279    5593.0872   -214.05617    36.873868 
137256000    286.62386    353.69377    305.48214    -5610.328    5629.5349     48.21163    36.869666 
137260000    263.16698    409.84883    244.56801   -5627.2441    5636.1372    165.28082    36.666448 
137264000    286.57835    286.01925    283.22107   -5644.0203    5651.9996    2.7981804    36.672673 
137268000    294.78848    569.08852    321.60597   -5689.3063    5688.5868    247.48255    36.604661 
137272000    285.14156    358.03286    565.42026    -5681.646     5702.318    -207.3874    36.669823 
137276000    288.26572    253.77796     250.2695   -5717.2981    5743.7395    3.5084568    36.490587 
137280000    274.01013    288.16278    157.79034   -5735.0091    5768.0702    130.37244    36.489497 
137284000    297.46754    257.72022    279.70074   -5764.8228    5764.4307   -21.980514    36.412697 
137288000    318.55374    317.33128    378.17099   -5801.7113    5780.4074   -60.839708    36.373695 
137292000    261.24399    208.50001    311.85458   -5802.8311    5811.7009   -103.35457    36.420285 
137296000    269.33542    360.41313    273.88408    -5812.177    5828.1169     86.52904    36.367584 
137300000    304.33824    449.94146    498.69232   -5844.3131    5823.8016    -48.75086    36.398036 
137304000    308.68296    363.62191    390.04028   -5856.1515    5842.9824   -26.418371    36.268276 
137308000     294.6068    535.96589    239.47483   -5874.1573    5882.8358    296.49106    36.261319 
137312000    279.20166    405.21723    319.61288   -5893.2873    5908.0375    85.604348    36.228106 
137316000    254.29653     409.4556    290.47705   -5914.5375    5935.6002    118.97856     36.21558 
137320000    297.37323    459.83252    403.96043    -5950.955    5951.2928    55.872081    36.182356 
137324000    294.60849    408.05597    250.96741   -5976.8352    5978.2945    157.08856    36.151282 
137328000     262.7198    275.84112    127.89499   -6006.0315    6014.6273    147.94614    36.294003 
137332000    274.86348    372.46372    188.12256   -6033.1483    6042.6581    184.34116     36.23964 
137336000    277.18386    553.15788    162.53573    -6044.672    6064.6016    390.62215    36.300874 
137340000    289.88448    343.82385    531.57771   -6077.2083    6074.7904   -187.75386    36.281085 
137344000    283.27166    770.65788    177.21869   -6106.7582    6118.0359    593.43919    36.256699 
137348000    253.62394    298.66996    269.65197   -6134.8944    6153.0107    29.017994    36.275391 
137352000    256.57387    273.06838    205.61103    -6185.055     6195.288    67.457345    36.302949 
137356000    281.33173    266.69783    407.91725   -6186.6293    6197.6446   -141.21941     36.29257 
137360000    288.71381    375.18297    150.31981   -6230.8837    6224.8403    224.86316    36.339807 
137364000    305.71798    403.29568    462.08193   -6259.9742    6247.8944   -58.786253    36.329392 
137368000    270.40285    464.09097    216.22176   -6254.3805    6274.5915    247.86921    36.422521 
137372000    257.59755    529.07602    294.22339   -6265.9215    6290.8039    234.85263    36.486804 
137376000    274.71267    249.03894    288.46173   -6275.5619    6268.1328   -39.422786    36.459475 
137380000     270.6211    415.87685     289.4573   -6297.6687    6290.8531    126.41955    36.424094 
[...]
167328000    298.20334    273.68449    353.89259    -151947.8    151963.51   -80.208105    36.090383 
167332000    293.85339    417.63369    363.26606   -151964.29    152000.23    54.367637    36.087532 
167336000    284.42272    329.87526    431.06309   -151983.75    152021.82   -101.18784    36.085238 
167340000    296.00928    228.49835    212.19058   -151989.43     152023.4    16.307763    36.085006 
167344000     274.7323    384.44366    271.26447   -152002.51    152034.58    113.17919    36.082413 
167348000    272.20915    497.93712    233.07633   -152052.64    152095.57    264.86078    36.083894 
167352000    258.64415    212.28783    234.77946    -152068.6    152109.83   -22.491629     36.08885 
167356000    296.27588    401.99228    334.78965   -152115.55    152118.76    67.202626    36.090144 
167360000     316.9649    380.81478    344.02876   -152122.27    152126.57    36.786014    36.086889 
167364000    268.90595    328.42942    297.96375   -152093.53    152132.34     30.46567    36.084041 
167368000    269.25364     320.0961     269.6029   -152117.91    152149.72    50.493193    36.081033 
167372000    288.92682    395.48464     413.5466   -152128.54    152148.11   -18.061958    36.075795 
167376000    303.81669     343.6497    453.57675      -152157    152173.53   -109.92705    36.076797 
167380000    296.69046    440.01178    259.21928   -152179.21    152189.29     180.7925    36.081284 
167384000    293.76295    348.19202    259.30042   -152214.88    152242.95    88.891594    36.081372 
167388000     310.3034    469.95788    283.28164   -152242.73    152256.21    186.67624    36.083734 
167392000     285.0874     475.2055    304.41386   -152261.82    152314.07    170.79164    36.082707 
167396000    263.16078    161.63828    288.15669    -152284.4    152327.73   -126.51841    36.082143 
167400000    299.08942    409.67392    432.30964   -152322.51    152347.98   -22.635715    36.081856 
167404000    274.11126    510.20053    506.02659    -152352.3    152381.38    4.1739487    36.082757 
167408000    277.01504    320.81161    272.45436   -152366.98    152395.09    48.357253    36.085099 
167412000    271.52927    339.27746    271.06259   -152374.64     152404.5    68.214877    36.083138 
167416000    266.89942    377.83693    362.62818   -152403.47    152441.45    15.208747     36.08149 
167420000    267.67099    285.58651    241.15818   -152435.95    152466.81    44.428324    36.078078 
167424000    292.23314    204.44497    277.11905   -152471.61    152482.78   -72.674081    36.077602 
167428000    297.42581    275.68687     359.9096   -152489.98    152508.98   -84.222729    36.077519 
167432000    283.07463     418.9504    331.07405   -152542.54    152563.43    87.876355    36.080248 
167436000    301.70763     555.4015    378.89099   -152582.95    152580.47     176.5105    36.081228 
167440000    258.35814    236.94389    133.57219   -152583.51    152626.26     103.3717    36.082357 
167444000    252.64009     242.9861     255.7377   -152614.87    152648.35   -12.751603     36.07714 
167448000    275.40648    429.65309    189.17144   -152643.58     152658.3    240.48164    36.078319 
167452000     263.5451    237.36817    353.13701   -152668.05    152707.58   -115.76884    36.076572 
167456000    287.72079    291.04654    302.00882    -152707.3    152730.29   -10.962278    36.074532 
167460000    276.68746    258.00796    461.18749   -152703.25     152725.8   -203.17953    36.072806 
167464000    280.61027    517.41596    332.45641   -152713.15    152734.74    184.95954    36.075077 
167468000    292.07426    612.23723    271.42891   -152754.63    152763.64    340.80832    36.078189 
167472000    298.57753    423.36348     317.5231   -152763.84    152786.52    105.84037    36.073421 
167476000    257.14969     297.3003    303.67362   -152784.21    152820.73     -6.37332    36.077618 
167480000    276.82528    350.27825    346.79965   -152789.48    152817.21    3.4786032     36.07579 
167484000     274.0188     379.9672    390.11073   -152815.32    152841.41   -10.143526    36.072858 
167488000    284.12588     341.9209    393.05772   -152818.53    152853.93   -51.136817    36.077028 
167492000    279.70946    205.72833    301.41546   -152858.32    152881.34    -95.68713    36.075238 
167496000    281.74902    247.52301    356.69721   -152866.63    152904.26    -109.1742    36.075806 
167500000    280.01416    386.33809    419.73966   -152913.29    152921.06   -33.401567    36.074411 
167504000    267.97582    352.06526    287.61609   -152927.67     152942.9    64.449167    36.072547 
167508000    278.18062    279.73211    172.21992   -152956.08    152991.38    107.51219    36.072951 
167512000    276.19703    250.52944     140.0022    -152991.1    153011.48    110.52724    36.075297 
167516000    277.76447    241.44254    236.94945   -153021.76    153033.26    4.4930826    36.071919 
167520000    323.12479    392.53308    363.04047    -153055.6    153049.92    29.492612    36.073209 
167524000    286.99681    308.61381    351.01637   -153061.74    153083.38   -42.402563    36.071584 
167528000    292.54892    310.95504    474.23112   -153073.77    153077.93   -163.27607    36.077917 
167532000    275.41258    412.77486    441.21536   -153050.23    153083.52   -28.440497    36.074889 
167536000    254.52885    285.30135    158.03905   -153062.24    153121.59    127.26229    36.071882 
167540000    286.32542    418.88533    394.68673   -153107.07    153119.46    24.198601    36.071448 
167544000     290.4174    423.40808    318.66276   -153135.04    153127.16    104.74531    36.076415 
167548000    242.90835    290.57639     292.5903   -153119.76    153163.11    -2.013903    36.075423 
167552000    264.04873    321.26595    287.03396    -153127.8    153181.29    34.231992    36.081138 
167556000    278.83727    312.45146    299.64555   -153160.69    153195.47    12.805908    36.082256 
167560000    264.91037    354.07168    349.23096    -153188.8    153216.39    4.8407218      36.0853 
167564000    328.04655    377.25034     353.3469    -153229.5     153239.3    23.903444    36.087819 
167568000    284.55035    559.10737    304.03317   -153251.51    153270.38     255.0742     36.08699 
167572000    256.17018    118.83062    213.32028   -153243.23    153284.88   -94.489661    36.085952 
167576000    285.29324    365.69264    350.84615   -153255.52    153289.02    14.846492    36.086752 
167580000    284.25214    477.06756    461.55803   -153292.63    153303.97    15.509531    36.090729 
167584000    282.19038    435.75404    325.25334   -153306.35    153322.67    110.50071     36.09168 
167588000    303.88583    313.76846    361.99103   -153321.61    153347.47   -48.222569    36.091748 
167592000    255.86306    296.52369    325.67791   -153324.26    153367.01   -29.154223    36.092289 
167596000    279.51632    251.65442    415.59707    -153338.2    153358.66   -163.94265    36.084361 
167600000    286.82599    372.92724    377.51807    -153366.2    153400.82    -4.590832    36.084066 
167604000    271.48856    259.45452    275.21435   -153378.25    153408.42   -15.759828    36.083196 
167608000    283.13506    276.72917    257.18523   -153416.79    153430.65    19.543939    36.078184 
167612000     304.3691    521.25495     387.1937   -153429.35     153443.4    134.06124    36.079693 
167616000    261.32031     391.1272     260.8111   -153442.17    153490.56    130.31611    36.082958 
167620000    307.90779    320.10499    265.03521   -153492.08    153501.54    55.069779    36.083501 
167624000    291.55062    548.73165    386.49549   -153481.99    153497.84    162.23616     36.08219 
167628000    279.56731     241.8419    341.30399   -153508.32    153527.46   -99.462088    36.084837 
167632000    265.31422    354.77944    328.25335   -153512.71    153551.57    26.526092     36.08874 
167636000    291.26773    252.95673    366.07666   -153565.13     153589.9   -113.11993    36.085684 
167640000    278.83987    434.75982    452.93239    -153591.5    153629.81   -18.172566    36.087743 
167644000    294.07249    319.77783    283.23844   -153627.98    153640.42    36.539391    36.087494 
167648000    295.83098    240.74399    204.14406   -153648.02    153669.73    36.599936     36.08446 
167652000    260.65129    419.19505     339.4663    -153661.8    153703.57    79.728754     36.08672 
167656000    297.01608      314.971    261.69313   -153699.63    153714.02    53.277865    36.087876 
167660000    267.41658    438.90764    296.74219   -153706.31    153732.82    142.16545    36.084917 
167664000    294.02272    370.91525    287.43633   -153699.52    153736.99    83.478921    36.087946 
167668000    295.33879    378.14484    216.50768   -153729.25    153752.16    161.63716     36.08454 
167672000    284.43898    363.62424    247.97193   -153756.71    153773.22     115.6523    36.082841 
167676000    301.07285    421.40081     299.0833   -153799.67    153806.02    122.31751    36.081895 
167680000    281.50015    404.14286    374.98188   -153816.13    153849.01    29.160981    36.079267 
167684000    272.22039    434.02487    296.45716   -153853.64    153882.61    137.56772    36.078748 
167688000    266.37386    431.93192    272.08015    -153885.6    153921.74    159.85177    36.077419 
167692000    268.65877    527.76134    423.66182   -153893.81    153927.01    104.09952    36.079015 
167696000    284.63329      596.349    606.97073   -153905.43    153939.79   -10.621729     36.07938 
167700000    267.98051    353.90273    282.47833   -153907.93    153946.36    71.424407    36.082751 
167704000     282.0692    359.93936    430.61611   -153938.24     153960.8   -70.676757    36.092828 
167708000     252.3754    326.50866    272.46561   -153952.72    154001.12    54.043043    36.093165 
167712000    289.36789    282.52311    328.71068   -153974.86    154001.69   -46.187565    36.090735 
167716000    311.00705    289.19066    431.06214   -154017.57    154022.25   -141.87148     36.09219 
167720000    292.88038    341.20344    162.25578      -154066    154089.69    178.94766    36.090985 
167724000    261.45598    312.07487    209.35418   -154085.14     154110.7    102.72069    36.090653 
167728000    296.73998    313.33279    320.18834    -154099.1    154106.53   -6.8555545    36.086508 
167732000    293.74544    689.42556    278.61514   -154150.96    154150.14    410.81042    36.089006 
167736000    278.66527    388.32313    296.70017   -154177.17    154205.36    91.622957    36.086323 
167740000      258.705    255.81737     271.8185   -154216.05    154241.65   -16.001128    36.086508 
167744000    273.13786    359.80553    448.69058   -154242.79    154284.63   -88.885049    36.089285 
167748000    264.72512    320.81972    539.23757   -154262.98    154302.34   -218.41785    36.083844 
167752000    267.68755    237.68538    511.57974   -154271.32    154299.63   -273.89436    36.080718 
167756000    283.26094    270.77673    257.05148   -154291.91    154312.66    13.725244     36.07956 
167760000    305.98115    254.67102    383.73122   -154290.58    154301.51    -129.0602    36.082049 
167764000     284.7518    272.10576    403.35329   -154284.17    154298.69   -131.24753    36.083821 
167768000    274.83928    289.42889    296.59266   -154305.44    154338.43   -7.1637677    36.081409 
167772000    294.11378      307.829    437.87905   -154336.15    154353.65   -130.05005    36.082515 
167776000    309.66488    401.23114    469.06311   -154343.47    154352.69    -67.83197    36.083265 
167780000     292.8373    423.45298    284.65136   -154347.48    154378.45    138.80161    36.084864 
167784000    267.74919    350.40343    264.11347   -154361.06     154384.4    86.289961    36.084024 
167788000    270.05406    471.92343    363.00562   -154352.82    154392.42    108.91781      36.0786 
167792000    283.77949    309.26816    361.28651   -154376.31    154406.33   -52.018347    36.073377 
167796000    277.60187    407.66798    501.78197   -154381.98    154406.48   -94.113993     36.07275 
167800000     267.9409    334.07087    223.17328   -154377.22    154423.65    110.89759    36.068275 
167804000    303.98327    302.67234    394.59054   -154415.77    154445.66   -91.918191    36.065938 
167808000     287.3961    301.98372    287.35413   -154432.26    154477.53    14.629594    36.067578 
167812000    261.24462    243.21333    185.34608   -154444.15    154489.69    57.867258    36.067309 
167816000    277.71766     251.5794    273.67408    -154482.1    154493.71   -22.094679    36.070667 
167820000    284.67805    246.44543    297.82242   -154504.01    154525.51   -51.376995     36.07509 
167824000    278.95485    651.45226    374.61395   -154529.56    154558.76    276.83832    36.080214 
167828000    264.57205    289.74464    326.37744   -154548.65    154570.56   -36.632805    36.081827 
167832000    293.86564    244.63198    336.12899   -154562.66    154590.28   -91.497011    36.074851 
167836000    325.15509    311.05798    239.39415    -154602.4    154611.53    71.663831    36.074945 
167840000    282.74678    304.66866    334.50643   -154578.98    154604.67   -29.837772     36.07121 
167844000    259.58549    191.31394    290.71061   -154589.08    154637.34   -99.396667    36.070144 
167848000    276.75723    352.79226    223.63412   -154617.83    154651.99    129.15814    36.071246 
167852000    264.81343    327.23104    270.60677   -154622.91     154656.5    56.624273     36.07096 
167856000    277.06426    207.12617    237.94999   -154612.97    154649.96   -30.823815    36.070477 
167860000     275.8159    322.64639    256.49381   -154634.76    154654.47    66.152582    36.070917 
167864000     288.2812    398.39862    473.34097   -154677.77    154694.36   -74.942347    36.068344 
167868000    285.97892    470.97878    407.83686   -154694.59    154730.92    63.141913    36.071859 
167872000    269.07783     158.7695    271.17935    -154717.8    154760.29   -112.40985    36.070668 
167876000    268.29621     324.7597    257.46051   -154745.37    154771.98     67.29919    36.068513 
167880000    269.97237    631.05612    320.99298   -154747.05    154795.65    310.06314    36.069738 
167884000    256.86933    260.70266    294.41823   -154767.14    154816.48   -33.715576    36.072113 
167888000    275.58828    503.59356     486.9723    -154777.2    154819.42    16.621266    36.071371 
167892000    285.41565    320.09321    236.97247   -154827.63    154857.04    83.120739    36.069771 
167896000    305.80641    414.09751    178.96704   -154860.04    154868.11    235.13048    36.065633 
167900000    261.13132    326.08346    276.62415   -154872.86    154912.15     49.45931    36.065401 
167904000    279.84976    392.95536    349.93235   -154887.88    154914.96    43.023012    36.063332 
167908000    259.22165    299.41427    124.73434   -154898.96    154933.36    174.67993    36.069914 
167912000    267.06327    309.35789    334.26544   -154890.07    154947.91   -24.907544    36.071347 
167916000    292.14957    164.09244     438.6039   -154951.74    154962.11   -274.51146    36.070135 
167920000    278.80552     380.8594    590.15703   -154971.56    154997.92   -209.29764    36.072883 
167924000    246.90294    280.16697    201.79647   -154993.86    155050.08    78.370501    36.074431 
167928000    315.92376    406.08039    382.53417   -155039.26    155033.32    23.546215     36.07366 
167932000    328.64111    431.81493    347.41155   -155040.91    155032.84    84.403379     36.07515 
167936000    315.97615    288.99376    304.40268   -155046.82    155043.28   -15.408921    36.069234 
167940000    250.55513     218.1343    303.29873   -155042.98    155096.66   -85.164426    36.064227 
167944000    263.70543     345.2378    226.61956   -155061.84    155099.09    118.61824    36.066088 
167948000     289.1033     322.9815    272.16862   -155090.82     155111.8    50.812879    36.069378 
167952000    298.44415    403.52139    381.27153   -155128.42    155131.03    22.249859    36.067327 
167956000    306.52562    298.52049    355.27505   -155116.87     155114.3   -56.754564    36.066567 
167960000    275.02988    239.05337    386.89949   -155082.48    155125.78   -147.84612    36.065376 
167964000    293.55622    576.04968    225.15484    -155103.6    155134.66    350.89484    36.071484 
167968000    300.79687    276.43263    314.68785   -155142.98    155154.93    -38.25522    36.073065 
167972000    278.49626    421.17765    336.68594   -155152.78    155163.52    84.491707    36.069467 
167976000    281.64189    367.38512    382.12576   -155186.78    155192.14   -14.740647    36.074498 
167980000    304.36287    439.75933     426.6534   -155233.99    155221.76    13.105928    36.070435 
167984000    297.65022    314.38941    191.21092    -155239.5    155237.99    123.17848    36.072802 
167988000    270.59907     288.9224    382.60575   -155262.75    155307.28    -93.68335     36.07553 
167992000    296.43329    300.04808    510.49508   -155294.92    155310.43     -210.447    36.074104 
167996000    291.63042    388.83236    442.25408   -155305.65    155303.03   -53.421727    36.073835 
168000000      298.665    332.48939    368.02265   -155312.89    155331.96   -35.533259    36.074012 
168004000    285.70116    222.69999    479.21292   -155313.58    155336.38   -256.51293    36.074631 
168008000    306.70906    624.54426    367.11362   -155331.84    155340.89    257.43063    36.072713 
168012000    280.83557    443.02014    341.70824   -155347.62    155390.07     101.3119    36.068697 
168016000     308.1246    360.60794    386.33511   -155371.35    155382.29   -25.727167    36.068887 
168020000    269.95131    279.65331     277.1856   -155378.43    155393.88    2.4677114    36.065855 
168024000    313.39655    571.65841     242.4047   -155375.51    155401.15    329.25371    36.068109 
168028000    283.29377    199.11644    317.37629   -155403.14    155421.86   -118.25985    36.069203 
168032000    282.39169    419.20831     344.9957   -155443.82    155456.36    74.212608    36.065589 
168036000    303.47496    150.06106    353.92913   -155467.48    155472.95   -203.86807    36.068913 
168040000    262.30474    287.19305    198.40261   -155476.86    155501.36    88.790438    36.069789 
168044000    283.59855    623.09782    278.95637   -155512.93    155538.29    344.14145    36.071959 
168048000     296.0833    479.48326    461.20335    -155507.4    155525.17    18.279909    36.073441 
168052000    301.34027    312.28639    261.35812   -155524.44    155536.27    50.928271    36.077292 
168056000    275.25091     373.3215    432.49755   -155548.01    155577.16    -59.17605     36.07835 
168060000    336.96078    684.31704    475.02682   -155561.53    155571.69    209.29022    36.078999 
Loop time of 3558.99 on 4 procs for 32000000 steps with 196 atoms

Performance: 971.063 ns/day, 0.025 hours/ns, 8991.327 timesteps/s
100.0% CPU use with 4 MPI tasks x no OpenMP threads

MPI task timing breakdown:
Section |  min time  |  avg time  |  max time  |%varavg| %total
---------------------------------------------------------------
Pair    | 360.17     | 517.95     | 682.2      | 691.5 | 14.55
Bond    | 542.18     | 941.58     | 1421.8     |1226.3 | 26.46
Neigh   | 33.076     | 33.48      | 33.862     |   4.8 |  0.94
Comm    | 791.03     | 1391.8     | 1923.6     |1366.4 | 39.11
Output  | 11.825     | 12.921     | 14.933     |  34.3 |  0.36
Modify  | 469.25     | 502.35     | 541.13     | 146.8 | 14.12
Other   |            | 158.9      |            |       |  4.47

Nlocal:    49 ave 95 max 9 min
Histogram: 1 1 0 0 0 0 1 0 0 1
Nghost:    147 ave 187 max 101 min
Histogram: 1 0 0 1 0 0 0 0 1 1
Neighs:    954 ave 1752 max 177 min
Histogram: 1 0 1 0 0 0 0 1 0 1

Total # of neighbors = 3816
Ave neighs/atom = 19.4694
Ave special neighs/atom = 5.87755
Neighbor list builds = 346869
Dangerous builds = 0

write_restart FINALCONFIG

Total wall time: 1:02:14
